   9   9   1   0
  0.3416450E+02  0.3185000E-09  0.3185000E-09  0.3500000E-08  0.5000000E-15
  1.000000000000000E-004
  CAR 
 unknown system                          
     66.42815504    -19.69540369  301      0.72565448      1.00000000
    -19.695  0.0000E+00  0.0000E+00
    -19.408  0.0000E+00  0.0000E+00
    -19.121  0.0000E+00  0.0000E+00
    -18.834  0.0000E+00  0.0000E+00
    -18.547  0.0000E+00  0.0000E+00
    -18.260  0.0000E+00  0.0000E+00
    -17.973  0.0000E+00  0.0000E+00
    -17.686  0.0000E+00  0.0000E+00
    -17.399 -0.6009E-27 -0.1725E-27
    -17.112 -0.7781E-18 -0.2234E-18
    -16.825 -0.1526E-10 -0.4381E-11
    -16.538 -0.4660E-05 -0.1338E-05
    -16.250 -0.1973E-01 -0.5664E-02
    -15.963 -0.3448E+00 -0.1047E+00
    -15.676  0.1138E+02  0.3162E+01
    -15.389  0.9599E+01  0.5917E+01
    -15.102  0.2851E+00  0.5999E+01
    -14.815  0.5515E+00  0.6158E+01
    -14.528  0.6400E+01  0.7995E+01
    -14.241 -0.4065E+00  0.7878E+01
    -13.954  0.7927E+01  0.1015E+02
    -13.667  0.6827E+01  0.1211E+02
    -13.380 -0.3938E+00  0.1200E+02
    -13.093 -0.2131E-02  0.1200E+02
    -12.806 -0.1052E-06  0.1200E+02
    -12.518 -0.7425E-13  0.1200E+02
    -12.231  0.0000E+00  0.1200E+02
    -11.944  0.0000E+00  0.1200E+02
    -11.657  0.0000E+00  0.1200E+02
    -11.370  0.0000E+00  0.1200E+02
    -11.083  0.0000E+00  0.1200E+02
    -10.796  0.0000E+00  0.1200E+02
    -10.509  0.0000E+00  0.1200E+02
    -10.222  0.0000E+00  0.1200E+02
     -9.935  0.0000E+00  0.1200E+02
     -9.648  0.0000E+00  0.1200E+02
     -9.361  0.0000E+00  0.1200E+02
     -9.073  0.0000E+00  0.1200E+02
     -8.786  0.0000E+00  0.1200E+02
     -8.499 -0.2007E-30  0.1200E+02
     -8.212 -0.1041E-20  0.1200E+02
     -7.925 -0.8142E-13  0.1200E+02
     -7.638 -0.9784E-07  0.1200E+02
     -7.351 -0.1613E-02  0.1200E+02
     -7.064 -0.2251E+00  0.1193E+02
     -6.777  0.3692E+01  0.1299E+02
     -6.490  0.8446E+01  0.1542E+02
     -6.203  0.4460E+01  0.1670E+02
     -5.916  0.4776E+01  0.1807E+02
     -5.629 -0.2436E+00  0.1800E+02
     -5.341 -0.3728E-02  0.1800E+02
     -5.054 -0.3768E-06  0.1800E+02
     -4.767 -0.1026E-06  0.1800E+02
     -4.480 -0.2141E-02  0.1800E+02
     -4.193 -0.4008E+00  0.1788E+02
     -3.906  0.6536E+01  0.1976E+02
     -3.619  0.1433E+02  0.2387E+02
     -3.332  0.7867E+01  0.2613E+02
     -3.045 -0.4955E+00  0.2599E+02
     -2.758 -0.6240E+00  0.2581E+02
     -2.471  0.1999E+02  0.3155E+02
     -2.184  0.3298E+02  0.4102E+02
     -1.897  0.8923E+01  0.4358E+02
     -1.609  0.1195E+01  0.4392E+02
     -1.322  0.1162E+02  0.4726E+02
     -1.035  0.2769E+01  0.4805E+02
     -0.748 -0.1794E+00  0.4800E+02
     -0.461 -0.6201E-03  0.4800E+02
     -0.174 -0.1394E+00  0.4796E+02
      0.113  0.2230E+01  0.4860E+02
      0.400  0.5756E+01  0.5025E+02
      0.687  0.1234E+02  0.5379E+02
      0.974  0.7986E+00  0.5402E+02
      1.261 -0.7898E-01  0.5400E+02
      1.548 -0.7521E-04  0.5400E+02
      1.835 -0.3951E-01  0.5399E+02
      2.123  0.3092E-02  0.5399E+02
      2.410  0.1216E+02  0.5748E+02
      2.697  0.1097E+02  0.6063E+02
      2.984  0.2927E+02  0.6903E+02
      3.271  0.1958E+02  0.7465E+02
      3.558  0.1172E+02  0.7802E+02
      3.845 -0.1979E-01  0.7801E+02
      4.132 -0.3866E-01  0.7800E+02
      4.419 -0.5848E-02  0.7800E+02
      4.706 -0.2317E+00  0.7793E+02
      4.993  0.5322E+01  0.7946E+02
      5.280  0.2720E+01  0.8024E+02
      5.568  0.1289E+02  0.8394E+02
      5.855  0.8166E+01  0.8628E+02
      6.142  0.1219E+02  0.8979E+02
      6.429  0.7702E+01  0.9200E+02
      6.716  0.3900E+01  0.9312E+02
      7.003  0.3271E+01  0.9406E+02
      7.290 -0.1913E+00  0.9400E+02
      7.577 -0.4899E-02  0.9400E+02
      7.864 -0.2659E+00  0.9392E+02
      8.151  0.4866E+01  0.9532E+02
      8.438  0.1119E+02  0.9853E+02
      8.725  0.1640E+02  0.1032E+03
      9.012  0.2832E+01  0.1041E+03
      9.300 -0.2390E+00  0.1040E+03
      9.587  0.5645E+01  0.1056E+03
      9.874  0.1226E+02  0.1091E+03
     10.161  0.1811E+02  0.1143E+03
     10.448  0.6674E+01  0.1162E+03
     10.735  0.1306E+02  0.1200E+03
     11.022 -0.1696E+00  0.1199E+03
     11.309  0.5115E+01  0.1214E+03
     11.596  0.2186E+01  0.1220E+03
     11.883 -0.1330E+00  0.1220E+03
     12.170 -0.3263E-01  0.1220E+03
     12.457 -0.8634E+00  0.1217E+03
     12.744  0.2312E+02  0.1284E+03
     13.032  0.2794E+02  0.1364E+03
     13.319  0.1212E+02  0.1399E+03
     13.606  0.4221E+01  0.1411E+03
     13.893  0.3116E+01  0.1420E+03
     14.180  0.3981E+01  0.1431E+03
     14.467  0.7160E+01  0.1452E+03
     14.754  0.3098E+01  0.1461E+03
     15.041  0.6255E+01  0.1479E+03
     15.328  0.2892E+00  0.1480E+03
     15.615  0.5648E+01  0.1496E+03
     15.902  0.7048E+01  0.1516E+03
     16.189  0.5445E+01  0.1532E+03
     16.476  0.1377E+02  0.1571E+03
     16.764  0.3442E+02  0.1670E+03
     17.051  0.1883E+02  0.1724E+03
     17.338  0.1247E+02  0.1760E+03
     17.625  0.2929E+01  0.1768E+03
     17.912  0.1787E+02  0.1820E+03
     18.199 -0.1379E-01  0.1819E+03
     18.486  0.4615E+01  0.1833E+03
     18.773  0.4261E+01  0.1845E+03
     19.060  0.6586E+01  0.1864E+03
     19.347  0.5789E+01  0.1880E+03
     19.634 -0.3466E+00  0.1880E+03
     19.921  0.3005E+01  0.1888E+03
     20.209  0.6297E+01  0.1906E+03
     20.496  0.4796E+01  0.1920E+03
     20.783  0.4282E+01  0.1932E+03
     21.070  0.1031E+02  0.1962E+03
     21.357  0.1372E+02  0.2001E+03
     21.644 -0.4074E+00  0.2000E+03
     21.931 -0.3208E-01  0.2000E+03
     22.218 -0.4689E+00  0.1999E+03
     22.505  0.9233E+01  0.2025E+03
     22.792  0.1591E+02  0.2071E+03
     23.079  0.1282E+02  0.2108E+03
     23.366  0.4068E+01  0.2119E+03
     23.653  0.9307E+01  0.2146E+03
     23.941  0.6087E+01  0.2163E+03
     24.228  0.7319E+01  0.2185E+03
     24.515  0.1826E+02  0.2237E+03
     24.802  0.2198E+02  0.2300E+03
     25.089  0.2440E+02  0.2370E+03
     25.376  0.3427E+02  0.2468E+03
     25.663  0.2764E+02  0.2548E+03
     25.950  0.1496E+02  0.2591E+03
     26.237  0.3252E+02  0.2684E+03
     26.524  0.1031E+02  0.2714E+03
     26.811  0.1405E+02  0.2754E+03
     27.098  0.1308E+02  0.2792E+03
     27.385  0.2556E+02  0.2865E+03
     27.673  0.2516E+02  0.2937E+03
     27.960  0.1843E+02  0.2990E+03
     28.247  0.4099E+01  0.3002E+03
     28.534  0.2181E+02  0.3065E+03
     28.821  0.2235E+02  0.3129E+03
     29.108  0.5400E+01  0.3144E+03
     29.395  0.2154E+02  0.3206E+03
     29.682  0.1828E+02  0.3259E+03
     29.969  0.8209E+01  0.3282E+03
     30.256  0.2226E+02  0.3346E+03
     30.543  0.1660E+02  0.3394E+03
     30.830  0.1374E+02  0.3433E+03
     31.117  0.8917E+01  0.3459E+03
     31.405  0.1177E+02  0.3492E+03
     31.692  0.2128E+02  0.3554E+03
     31.979  0.2002E+01  0.3559E+03
     32.266  0.8403E+01  0.3583E+03
     32.553  0.1125E+02  0.3616E+03
     32.840  0.1864E+02  0.3669E+03
     33.127  0.5241E+01  0.3684E+03
     33.414  0.1749E+02  0.3735E+03
     33.701  0.3723E+01  0.3745E+03
     33.988  0.2215E+02  0.3809E+03
     34.275  0.1147E+02  0.3842E+03
     34.562  0.1238E+02  0.3877E+03
     34.850  0.1215E+02  0.3912E+03
     35.137  0.2162E+02  0.3974E+03
     35.424  0.1162E+02  0.4008E+03
     35.711  0.5624E+01  0.4024E+03
     35.998  0.5512E+01  0.4040E+03
     36.285  0.1142E+02  0.4072E+03
     36.572  0.1128E+02  0.4105E+03
     36.859  0.2502E+02  0.4177E+03
     37.146  0.7644E+01  0.4198E+03
     37.433  0.1632E+02  0.4245E+03
     37.720  0.1663E+02  0.4293E+03
     38.007  0.1078E+02  0.4324E+03
     38.294  0.7349E+01  0.4345E+03
     38.582  0.1201E+02  0.4380E+03
     38.869  0.2367E+02  0.4448E+03
     39.156  0.5777E+01  0.4464E+03
     39.443  0.1612E+02  0.4510E+03
     39.730  0.2524E+02  0.4583E+03
     40.017  0.6430E+01  0.4601E+03
     40.304  0.1325E+02  0.4639E+03
     40.591  0.1780E+02  0.4690E+03
     40.878  0.1673E+02  0.4738E+03
     41.165  0.1339E+02  0.4777E+03
     41.452  0.1759E+02  0.4827E+03
     41.739  0.1780E+02  0.4878E+03
     42.026  0.1991E+02  0.4936E+03
     42.314  0.1494E+02  0.4979E+03
     42.601  0.1181E+02  0.5012E+03
     42.888  0.2765E+02  0.5092E+03
     43.175  0.2449E+02  0.5162E+03
     43.462  0.1792E+02  0.5214E+03
     43.749  0.1948E+01  0.5219E+03
     44.036  0.9733E+01  0.5247E+03
     44.323  0.6244E+01  0.5265E+03
     44.610  0.2576E+02  0.5339E+03
     44.897  0.8228E+01  0.5363E+03
     45.184  0.1481E+02  0.5405E+03
     45.471  0.2283E+02  0.5471E+03
     45.759  0.2846E+02  0.5552E+03
     46.046  0.1638E+02  0.5599E+03
     46.333  0.9019E+01  0.5625E+03
     46.620  0.1583E+02  0.5671E+03
     46.907  0.1318E+02  0.5709E+03
     47.194  0.1557E+02  0.5753E+03
     47.481  0.8015E+01  0.5776E+03
     47.768  0.1100E+02  0.5808E+03
     48.055  0.1778E+02  0.5859E+03
     48.342  0.4743E+00  0.5860E+03
     48.629 -0.3731E+00  0.5859E+03
     48.916  0.4112E+01  0.5871E+03
     49.203  0.2423E+02  0.5941E+03
     49.491  0.7109E+01  0.5961E+03
     49.778  0.1346E+01  0.5965E+03
     50.065  0.1526E+02  0.6009E+03
     50.352  0.8752E+01  0.6034E+03
     50.639  0.1004E+02  0.6063E+03
     50.926  0.1734E+02  0.6112E+03
     51.213  0.1619E+02  0.6159E+03
     51.500  0.4361E+00  0.6160E+03
     51.787  0.7774E+01  0.6182E+03
     52.074  0.7466E+01  0.6204E+03
     52.361  0.1248E+02  0.6240E+03
     52.648  0.9141E+01  0.6266E+03
     52.935  0.1193E+02  0.6300E+03
     53.223  0.1221E+02  0.6335E+03
     53.510  0.8597E+01  0.6360E+03
     53.797  0.2531E+01  0.6367E+03
     54.084  0.4152E+01  0.6379E+03
     54.371  0.1167E+02  0.6413E+03
     54.658  0.1130E+02  0.6445E+03
     54.945  0.5115E+01  0.6460E+03
     55.232  0.4968E+01  0.6474E+03
     55.519  0.1956E+02  0.6530E+03
     55.806  0.1033E+02  0.6560E+03
     56.093  0.1026E+02  0.6589E+03
     56.380  0.1419E+02  0.6630E+03
     56.667  0.2547E+02  0.6703E+03
     56.955  0.1313E+02  0.6741E+03
     57.242  0.1898E+02  0.6795E+03
     57.529  0.2081E+02  0.6855E+03
     57.816  0.1299E+02  0.6892E+03
     58.103  0.2327E+02  0.6959E+03
     58.390  0.2400E+02  0.7028E+03
     58.677  0.8217E+01  0.7052E+03
     58.964  0.2516E+02  0.7124E+03
     59.251  0.1697E+02  0.7173E+03
     59.538  0.1964E+02  0.7229E+03
     59.825  0.1895E+02  0.7283E+03
     60.112  0.1830E+02  0.7336E+03
     60.400  0.1362E+02  0.7375E+03
     60.687  0.1112E+02  0.7407E+03
     60.974  0.1043E+02  0.7437E+03
     61.261  0.1658E+02  0.7484E+03
     61.548  0.2294E+02  0.7550E+03
     61.835  0.1333E+02  0.7589E+03
     62.122  0.1688E+02  0.7637E+03
     62.409  0.2408E+02  0.7706E+03
     62.696  0.1941E+02  0.7762E+03
     62.983 -0.6066E+00  0.7760E+03
     63.270 -0.3404E-01  0.7760E+03
     63.557 -0.7792E-05  0.7760E+03
     63.844 -0.2420E-10  0.7760E+03
     64.132  0.0000E+00  0.7760E+03
     64.419  0.0000E+00  0.7760E+03
     64.706  0.0000E+00  0.7760E+03
     64.993  0.0000E+00  0.7760E+03
     65.280  0.0000E+00  0.7760E+03
     65.567  0.0000E+00  0.7760E+03
     65.854  0.0000E+00  0.7760E+03
     66.141  0.0000E+00  0.7760E+03
     66.428  0.0000E+00  0.7760E+03
     66.42815504    -19.69540369  301      0.72565448      1.00000000
    -19.695  0.0000E+00  0.0000E+00  0.0000E+00  0.0000E+00  0.0000E+00  0.0000E+00  0.0000E+00  0.0000E+00  0.0000E+00
    -19.408  0.0000E+00  0.0000E+00  0.0000E+00  0.0000E+00  0.0000E+00  0.0000E+00  0.0000E+00  0.0000E+00  0.0000E+00
    -19.121  0.0000E+00  0.0000E+00  0.0000E+00  0.0000E+00  0.0000E+00  0.0000E+00  0.0000E+00  0.0000E+00  0.0000E+00
    -18.834  0.0000E+00  0.0000E+00  0.0000E+00  0.0000E+00  0.0000E+00  0.0000E+00  0.0000E+00  0.0000E+00  0.0000E+00
    -18.547  0.0000E+00  0.0000E+00  0.0000E+00  0.0000E+00  0.0000E+00  0.0000E+00  0.0000E+00  0.0000E+00  0.0000E+00
    -18.260  0.0000E+00  0.0000E+00  0.0000E+00  0.0000E+00  0.0000E+00  0.0000E+00  0.0000E+00  0.0000E+00  0.0000E+00
    -17.973  0.0000E+00  0.0000E+00  0.0000E+00  0.0000E+00  0.0000E+00  0.0000E+00  0.0000E+00  0.0000E+00  0.0000E+00
    -17.686  0.0000E+00  0.0000E+00  0.0000E+00  0.0000E+00  0.0000E+00  0.0000E+00  0.0000E+00  0.0000E+00  0.0000E+00
    -17.399 -0.1227E-35 -0.2357E-38 -0.1254E-37 -0.4963E-38 -0.2665E-36 -0.3622E-37 -0.3525E-37 -0.7465E-37 -0.7135E-37
    -17.112 -0.4017E-26 -0.3200E-29 -0.3468E-28 -0.6876E-29 -0.3423E-27 -0.4696E-28 -0.5493E-28 -0.9709E-28 -0.9158E-28
    -16.825 -0.5888E-18 -0.6925E-22 -0.1492E-20 -0.1546E-21 -0.6591E-20 -0.9235E-21 -0.1523E-20 -0.1922E-20 -0.1760E-20
    -16.538 -0.6252E-11 -0.2544E-16 -0.9957E-15 -0.6025E-16 -0.1932E-14 -0.2837E-15 -0.1276E-14 -0.5992E-15 -0.5134E-15
    -16.250 -0.1314E-05 -0.1455E-12 -0.9642E-11 -0.3699E-12 -0.7462E-11 -0.1215E-11 -0.1237E-09 -0.2642E-11 -0.1962E-11
    -15.963 -0.3523E-02 -0.5429E-11 -0.2439E-08 -0.1508E-10 -0.7001E-10 -0.2155E-10 -0.3177E-06 -0.5115E-10 -0.1711E-10
    -15.676  0.1058E-01  0.1272E-09  0.1633E-07  0.3444E-09  0.3472E-08  0.7156E-09  0.9593E-06  0.1637E-08  0.8868E-09
    -15.389  0.9851E+00  0.1085E-09  0.5465E-06  0.2500E-09  0.1231E-08  0.3761E-09  0.8876E-04  0.4988E-09  0.4485E-09
    -15.102  0.8213E-01  0.1820E-11  0.4488E-07  0.6002E-12 -0.3233E-11 -0.1005E-10  0.7400E-05 -0.5696E-10  0.1163E-10
    -14.815 -0.7051E-02 -0.2930E-13 -0.8597E-08  0.2771E-12 -0.5459E-12  0.1354E-09 -0.6351E-06  0.3106E-09  0.2656E-11
    -14.528 -0.4879E-05  0.4241E-11 -0.8867E-04  0.1161E-10  0.3377E-10  0.1463E-08  0.4410E-09  0.3325E-08  0.4953E-10
    -14.241 -0.9856E-06 -0.3680E-11 -0.1444E-01 -0.6321E-11 -0.1810E-09 -0.8074E-10 -0.2214E-06 -0.2317E-09 -0.6651E-10
    -13.954  0.1727E-04  0.6696E-10  0.2530E+00  0.1174E-09  0.3331E-08  0.1623E-08  0.3883E-05  0.4576E-08  0.1222E-08
    -13.667  0.1752E-04  0.5513E-10  0.2567E+00  0.8522E-10  0.2417E-08  0.1221E-08  0.3927E-05  0.3405E-08  0.9230E-09
    -13.380 -0.9967E-06 -0.3193E-11 -0.1460E-01 -0.4997E-11 -0.1417E-09 -0.7133E-10 -0.2234E-06 -0.1992E-09 -0.5390E-10
    -13.093 -0.6338E-08 -0.1643E-13 -0.9287E-04 -0.2154E-13 -0.6104E-12 -0.3235E-12 -0.1417E-08 -0.8894E-12 -0.2471E-12
    -12.806 -0.3464E-12 -0.7813E-18 -0.5076E-08 -0.8691E-18 -0.2461E-16 -0.1377E-16 -0.7734E-13 -0.3726E-16 -0.1063E-16
    -12.518 -0.2618E-18 -0.5359E-24 -0.3837E-14 -0.5123E-24 -0.1449E-22 -0.8573E-23 -0.5842E-19 -0.2283E-22 -0.6684E-23
    -12.231  0.0000E+00  0.0000E+00  0.0000E+00  0.0000E+00  0.0000E+00  0.0000E+00  0.0000E+00  0.0000E+00  0.0000E+00
    -11.944  0.0000E+00  0.0000E+00  0.0000E+00  0.0000E+00  0.0000E+00  0.0000E+00  0.0000E+00  0.0000E+00  0.0000E+00
    -11.657  0.0000E+00  0.0000E+00  0.0000E+00  0.0000E+00  0.0000E+00  0.0000E+00  0.0000E+00  0.0000E+00  0.0000E+00
    -11.370  0.0000E+00  0.0000E+00  0.0000E+00  0.0000E+00  0.0000E+00  0.0000E+00  0.0000E+00  0.0000E+00  0.0000E+00
    -11.083  0.0000E+00  0.0000E+00  0.0000E+00  0.0000E+00  0.0000E+00  0.0000E+00  0.0000E+00  0.0000E+00  0.0000E+00
    -10.796  0.0000E+00  0.0000E+00  0.0000E+00  0.0000E+00  0.0000E+00  0.0000E+00  0.0000E+00  0.0000E+00  0.0000E+00
    -10.509  0.0000E+00  0.0000E+00  0.0000E+00  0.0000E+00  0.0000E+00  0.0000E+00  0.0000E+00  0.0000E+00  0.0000E+00
    -10.222  0.0000E+00  0.0000E+00  0.0000E+00  0.0000E+00  0.0000E+00  0.0000E+00  0.0000E+00  0.0000E+00  0.0000E+00
     -9.935  0.0000E+00  0.0000E+00  0.0000E+00  0.0000E+00  0.0000E+00  0.0000E+00  0.0000E+00  0.0000E+00  0.0000E+00
     -9.648  0.0000E+00  0.0000E+00  0.0000E+00  0.0000E+00  0.0000E+00  0.0000E+00  0.0000E+00  0.0000E+00  0.0000E+00
     -9.361  0.0000E+00  0.0000E+00  0.0000E+00  0.0000E+00  0.0000E+00  0.0000E+00  0.0000E+00  0.0000E+00  0.0000E+00
     -9.073  0.0000E+00  0.0000E+00  0.0000E+00  0.0000E+00  0.0000E+00  0.0000E+00  0.0000E+00  0.0000E+00  0.0000E+00
     -8.786  0.0000E+00  0.0000E+00  0.0000E+00  0.0000E+00  0.0000E+00  0.0000E+00  0.0000E+00  0.0000E+00  0.0000E+00
     -8.499 -0.9670E-35 -0.5846E-42 -0.3552E-37 -0.1564E-41 -0.1803E-38 -0.2844E-38 -0.1746E-34 -0.7987E-38 -0.5820E-39
     -8.212 -0.5017E-25 -0.3033E-32 -0.1843E-27 -0.8114E-32 -0.9352E-29 -0.1475E-28 -0.9056E-25 -0.4144E-28 -0.3020E-29
     -7.925 -0.3926E-17 -0.2372E-24 -0.1441E-19 -0.6346E-24 -0.7314E-21 -0.1154E-20 -0.7087E-17 -0.3241E-20 -0.2362E-21
     -7.638 -0.4802E-11 -0.2851E-18 -0.1732E-13 -0.7626E-18 -0.8789E-15 -0.1387E-14 -0.8675E-11 -0.3894E-14 -0.2838E-15
     -7.351 -0.1345E-06 -0.4700E-14 -0.2865E-09 -0.1257E-13 -0.1449E-10 -0.2286E-10 -0.2462E-06 -0.6419E-10 -0.4678E-11
     -7.064 -0.5041E-03 -0.6584E-12 -0.4803E-07 -0.1750E-11 -0.1982E-08 -0.3126E-08 -0.9396E-03 -0.8779E-08 -0.6402E-09
     -6.777 -0.2590E-01  0.1062E-10  0.2210E-06  0.2903E-10  0.3529E-07  0.5574E-07 -0.4832E-01  0.1565E-06  0.1139E-07
     -6.490  0.5563E+00  0.2588E-10  0.1074E-04  0.5685E-10  0.3190E-07  0.4893E-07  0.1038E+01  0.1375E-06  0.1047E-07
     -6.203  0.2393E+00  0.4123E-10  0.4323E-05  0.8930E-10  0.2436E-09 -0.1719E-08  0.4463E+00 -0.5391E-08  0.1289E-09
     -5.916 -0.1454E-01  0.6795E-10 -0.2647E-06  0.1515E-09  0.3229E-08  0.2190E-08 -0.2712E-01  0.4997E-08  0.9920E-09
     -5.629 -0.3592E-04 -0.3390E-11 -0.6694E-09 -0.7551E-11 -0.1617E-09 -0.1092E-09 -0.6700E-04 -0.2497E-09 -0.4993E-10
     -5.341 -0.9180E-09 -0.5192E-13 -0.2490E-12 -0.1157E-12 -0.2477E-11 -0.1674E-11 -0.1710E-08 -0.3826E-11 -0.7647E-12
     -5.054 -0.5497E-15 -0.3937E-15 -0.2349E-16 -0.3989E-15 -0.1719E-13 -0.1704E-15 -0.8057E-15 -0.3880E-15 -0.1707E-13
     -4.767 -0.2401E-18 -0.5867E-09 -0.2951E-17 -0.5854E-09 -0.2561E-07 -0.1835E-11 -0.2621E-16 -0.1862E-11 -0.2567E-07
     -4.480 -0.5209E-14 -0.1223E-04 -0.6152E-13 -0.1222E-04 -0.5344E-03 -0.3826E-07 -0.5568E-12 -0.3885E-07 -0.5352E-03
     -4.193 -0.5740E-11 -0.2279E-02 -0.1150E-10 -0.2279E-02 -0.9968E-01 -0.7129E-05 -0.3307E-09 -0.7247E-05 -0.9972E-01
     -3.906 -0.1016E-08  0.3948E-01  0.1898E-09  0.3947E-01  0.1727E+01  0.1235E-03 -0.4735E-07  0.1255E-03  0.1728E+01
     -3.619  0.1772E-07  0.4490E-01  0.3764E-09  0.4493E-01  0.1965E+01  0.1405E-03  0.8441E-06  0.1429E-03  0.1965E+01
     -3.332  0.2277E-07 -0.2518E-02  0.1811E-09 -0.2519E-02 -0.1102E+00 -0.9760E-05  0.1083E-05 -0.9923E-05 -0.1102E+00
     -3.045 -0.1255E-08 -0.1840E-04 -0.1338E-09 -0.1842E-04 -0.8066E-03 -0.6757E-02 -0.5966E-07 -0.6785E-02 -0.8056E-03
     -2.758 -0.1226E-08 -0.9707E-08 -0.1789E-05 -0.9174E-08 -0.1895E-05 -0.2570E-01 -0.8934E-07 -0.2517E-01 -0.1908E-05
     -2.471 -0.1414E-06  0.8647E-06 -0.5603E-03  0.8287E-06  0.1900E-03  0.2593E+01 -0.1091E-04  0.2594E+01  0.1869E-03
     -2.184  0.2308E-05  0.1163E-06 -0.8773E-02  0.1127E-06  0.2526E-04  0.3440E+00  0.1688E-03  0.3425E+00  0.2498E-04
     -1.897  0.6531E-05 -0.7651E-08  0.3067E+00 -0.5963E-08 -0.1802E-05 -0.2519E-01  0.6294E-03 -0.2511E-01 -0.1806E-05
     -1.609  0.1411E-05 -0.3390E-10  0.1030E+00 -0.1145E-09 -0.4502E-08 -0.2311E-04  0.1528E-03 -0.2296E-04 -0.3847E-08
     -1.322 -0.9220E-07  0.1063E-09 -0.6396E-02  0.2118E-09  0.1869E-07  0.5439E-08 -0.1005E-04  0.6969E-08  0.5704E-07
     -1.035  0.5531E-09  0.2542E-10 -0.1258E-04  0.5042E-10  0.4412E-08  0.1354E-08 -0.1565E-07  0.1728E-08  0.1346E-07
     -0.748 -0.4791E-10 -0.1647E-11 -0.2799E-09 -0.3267E-11 -0.2859E-09 -0.8771E-10 -0.2639E-09 -0.1120E-09 -0.8722E-09
     -0.461 -0.7923E-11 -0.4864E-14 -0.8521E-13 -0.1090E-13 -0.8019E-12 -0.1608E-12 -0.1789E-09 -0.2651E-12 -0.1418E-11
     -0.174 -0.7062E-06 -0.9667E-12 -0.2221E-09 -0.2398E-11 -0.1521E-09 -0.1389E-10 -0.1637E-04 -0.4069E-10 -0.6910E-10
      0.113 -0.9615E-03  0.1139E-10 -0.5136E-06  0.2736E-10  0.1059E-08  0.1298E-09 -0.2207E-01  0.3576E-09  0.7000E-09
      0.400  0.8977E-02  0.7873E-10 -0.4880E-06  0.2018E-09  0.1787E-07  0.1180E-08  0.2109E+00  0.4344E-08  0.6173E-08
      0.687  0.1665E+00  0.7582E-09  0.1736E-03  0.2060E-08  0.2656E-06  0.2091E-07  0.3744E+01  0.5425E-07  0.8191E-07
      0.974  0.1102E-01  0.4723E-10  0.2195E-04  0.1324E-09  0.1965E-07  0.1863E-08  0.2382E+00  0.3649E-08  0.6215E-08
      1.261 -0.1065E-02 -0.4710E-11 -0.1634E-05 -0.1300E-10 -0.1804E-08 -0.1701E-09 -0.2347E-01 -0.3624E-09 -0.5641E-09
      1.548 -0.8460E-06 -0.1538E-09 -0.1496E-08 -0.1535E-09 -0.2537E-08 -0.2956E-05 -0.1847E-04 -0.2930E-05 -0.2520E-08
      1.835 -0.1100E-10 -0.4660E-06 -0.2340E-11 -0.4670E-06 -0.7712E-05 -0.8957E-02 -0.1886E-09 -0.8912E-02 -0.7634E-05
      2.123 -0.7078E-11 -0.7031E-06  0.1321E-12 -0.7514E-06 -0.1218E-04  0.2402E-02 -0.4238E-09  0.1515E-02 -0.1140E-04
      2.410  0.3666E-10 -0.9841E-03  0.7272E-09 -0.9850E-03 -0.1596E-01  0.2882E+01 -0.3725E-07  0.2881E+01 -0.1597E-01
      2.697  0.1292E-07  0.1375E-01  0.1742E-10  0.1378E-01  0.2239E+00  0.2992E+00  0.7028E-06  0.3011E+00  0.2233E+00
      2.984  0.2008E-07  0.1492E+00  0.8853E-08  0.1492E+00  0.2424E+01 -0.2090E-01  0.5242E-06 -0.2096E-01  0.2424E+01
      3.271  0.1180E-07  0.9311E-03  0.1254E-07  0.9126E-03  0.1482E-01  0.1094E-06  0.1054E-06 -0.8534E-06  0.1513E-01
      3.558 -0.6491E-09 -0.5018E-03 -0.6503E-09 -0.5009E-03 -0.8136E-02 -0.9248E-05 -0.3730E-08 -0.9350E-05 -0.8152E-02
      3.845 -0.7494E-11 -0.1774E-06 -0.7670E-11 -0.1769E-06 -0.2873E-05 -0.4244E-08 -0.8320E-10 -0.3829E-08 -0.2881E-05
      4.132 -0.2354E-08 -0.1042E-10 -0.7549E-10 -0.7581E-11 -0.1384E-09 -0.1241E-09 -0.1222E-08 -0.7391E-10 -0.1395E-09
      4.419 -0.1739E-04 -0.1015E-11 -0.5574E-06 -0.2963E-11 -0.1530E-09 -0.3036E-11 -0.8952E-05 -0.7778E-11 -0.4514E-10
      4.706 -0.6924E-03 -0.4016E-10 -0.2213E-04 -0.1175E-09 -0.6071E-08 -0.1189E-09 -0.3554E-03 -0.3078E-09 -0.1790E-08
      4.993  0.1252E-01  0.9340E-09  0.5143E-03  0.2737E-08  0.1414E-06  0.2760E-08  0.8150E-02  0.7151E-08  0.4169E-07
      5.280  0.3927E-01  0.3589E-09  0.1987E-03  0.1020E-08  0.5234E-07  0.1061E-08  0.4279E-02  0.2735E-08  0.1556E-07
      5.568  0.6343E+00  0.3481E-09  0.6442E-04  0.5438E-09  0.2260E-07  0.2744E-08  0.2288E-01  0.5384E-08  0.8293E-08
      5.855  0.6910E-01  0.6181E-09  0.3954E-02  0.1352E-08  0.2112E-07  0.7577E-08  0.1280E-01  0.2039E-07  0.6514E-08
      6.142  0.8046E-01  0.2724E-08  0.1505E-01  0.6377E-08  0.4025E-07  0.1149E-07  0.1359E+00  0.2961E-07  0.1214E-07
      6.429  0.1223E-01  0.4709E-09  0.2960E-02  0.1404E-08  0.2215E-07  0.6244E-08  0.5135E-01  0.1741E-07  0.5376E-08
      6.716 -0.8207E-03  0.4712E-11  0.2645E-03  0.8025E-10  0.7262E-09  0.4108E-08 -0.2733E-03  0.9350E-08  0.1178E-08
      7.003 -0.4324E-05  0.2180E-10  0.2965E-03  0.1139E-09  0.9089E-09  0.3438E-08  0.1558E-02  0.7864E-08  0.1025E-08
      7.290 -0.1835E-06 -0.1308E-11 -0.1760E-04 -0.6746E-11 -0.5588E-10 -0.2007E-09 -0.9398E-04 -0.4595E-09 -0.6038E-10
      7.577 -0.4248E-05 -0.2469E-12 -0.2552E-04 -0.4093E-12 -0.3334E-11 -0.1529E-11 -0.2312E-04 -0.3883E-11 -0.1043E-11
      7.864 -0.2606E-03 -0.3154E-10 -0.1616E-02 -0.7561E-10 -0.1747E-08 -0.5532E-09 -0.1390E-02 -0.1576E-08 -0.5234E-09
      8.151  0.5279E-02  0.1309E-09  0.2277E-01  0.2956E-09  0.6784E-08  0.1713E-08  0.2826E-01  0.4941E-08  0.1875E-08
      8.438  0.3493E-02  0.8201E-08  0.1761E+00  0.1963E-07  0.4638E-06  0.1532E-06  0.1723E-01  0.4355E-06  0.1410E-06
      8.725  0.2901E-02  0.1070E-07  0.3958E+00  0.2445E-07  0.8368E-07  0.3381E-07  0.1063E-01  0.9834E-07  0.3144E-07
      9.012  0.3889E-03 -0.4016E-08 -0.1547E-01 -0.6078E-08  0.5203E-08  0.2621E-08  0.1463E-02  0.6529E-08  0.4621E-08
      9.300 -0.1719E-03 -0.8982E-04 -0.5392E-03 -0.8956E-04 -0.1897E-04 -0.9023E-09 -0.4614E-03 -0.1691E-08 -0.1902E-04
      9.587  0.3011E-01 -0.2416E-01  0.8213E-02 -0.2414E-01 -0.5113E-02 -0.1119E-06  0.7363E-01 -0.1001E-06 -0.5117E-02
      9.874  0.3474E-02  0.4083E+00  0.9507E-03  0.4079E+00  0.8639E-01  0.2334E-05  0.8530E-02  0.2908E-05  0.8646E-01
     10.161  0.1746E-03  0.6429E+00  0.1946E-04  0.6432E+00  0.1362E+00  0.3660E-05  0.1191E-03  0.4532E-05  0.1361E+00
     10.448  0.9445E-02 -0.3402E-01  0.1972E-02 -0.3403E-01 -0.7207E-02 -0.1797E-06  0.1649E-01 -0.2277E-06 -0.7204E-02
     10.735  0.3469E-03 -0.3755E-03  0.7224E-04 -0.3762E-03 -0.7947E-04  0.1228E-06  0.6056E-03  0.4151E-07 -0.7937E-04
     11.022 -0.4562E-04 -0.2587E-07 -0.1909E-04 -0.2753E-07 -0.4087E-08 -0.6846E-09 -0.7965E-04 -0.4668E-08 -0.4436E-08
     11.309  0.3896E-06  0.7488E-08  0.2052E-03  0.2979E-07 -0.1274E-09  0.3532E-07  0.5540E-06  0.1066E-06 -0.5156E-09
     11.596  0.1745E-06  0.4170E-08  0.8696E-04  0.1358E-07  0.4219E-09  0.1515E-07  0.2512E-06  0.4523E-07  0.1689E-09
     11.883 -0.1065E-07 -0.2938E-09 -0.5290E-05 -0.8663E-09 -0.2629E-10 -0.3767E-06 -0.1531E-07 -0.3804E-06 -0.1086E-10
     12.170 -0.1787E-05 -0.1635E-06 -0.2359E-07 -0.1625E-06 -0.4367E-08 -0.1515E-02 -0.1519E-05 -0.1520E-02 -0.3103E-08
     12.457 -0.9360E-03 -0.1613E-05 -0.5597E-05 -0.1448E-05 -0.2992E-06 -0.1241E-01 -0.7946E-03 -0.1233E-01 -0.1389E-06
     12.744  0.1482E-01  0.7778E-04  0.8805E-04  0.7492E-04  0.5981E-05  0.6820E+00  0.1257E-01  0.6823E+00  0.3124E-05
     13.032  0.4772E-01  0.1587E-04  0.2826E-03  0.1413E-04  0.4452E-05  0.1115E+00  0.4047E-01  0.1111E+00  0.2053E-05
     13.319  0.1408E-01 -0.3978E-06  0.4861E-03  0.9546E-06  0.5723E-06 -0.7739E-02  0.1644E-02 -0.7707E-02  0.1506E-06
     13.606  0.4283E+00  0.1386E-07  0.2060E-03  0.4526E-07  0.1290E-07 -0.8270E-05  0.5947E+00 -0.7947E-05  0.2315E-08
     13.893  0.3646E+00 -0.3112E-08  0.1292E-03 -0.9238E-08 -0.1014E-07 -0.2756E-07  0.5073E+00 -0.8014E-07 -0.3199E-08
     14.180 -0.2112E-01  0.5443E-08  0.1425E-03  0.1802E-07  0.1281E-06  0.4473E-07 -0.2934E-01  0.1142E-06  0.4222E-07
     14.467 -0.4840E-04  0.2521E-07  0.9931E-03  0.6730E-07  0.2398E-06  0.1437E-06 -0.3842E-04  0.3814E-06  0.8567E-07
     14.754  0.4472E-03  0.1644E-07  0.6731E-03  0.4213E-07  0.1086E-06  0.8148E-07  0.1328E-03  0.2198E-06  0.4063E-07
     15.041  0.2177E-01  0.5550E-07  0.1801E-02  0.1516E-06  0.1146E-06  0.4609E-07  0.3578E-02  0.1911E-06  0.4016E-07
     15.328  0.1633E-02 -0.3274E-07 -0.1705E-03 -0.9122E-07 -0.3195E-06 -0.1010E-06  0.2662E-03 -0.2808E-06 -0.1123E-06
     15.615 -0.1065E-03  0.1180E-05 -0.5450E-02  0.3283E-05  0.1051E-04  0.3351E-05  0.6026E-04  0.9470E-05  0.3690E-05
     15.902 -0.9199E-04 -0.6437E-04  0.1825E+00 -0.6467E-04 -0.1372E-03 -0.5039E-04 -0.2089E-05 -0.4762E-04 -0.1372E-03
     16.189  0.2414E-02 -0.1530E-01  0.4492E-01 -0.1533E-01 -0.3261E-01 -0.1609E-01  0.6202E-03 -0.1602E-01 -0.3256E-01
     16.476  0.3896E-03  0.2602E+00 -0.8354E-03  0.2609E+00  0.5552E+00  0.2679E+00 -0.8317E-04  0.2667E+00  0.5540E+00
     16.764  0.1319E-01  0.3818E+00  0.2316E-02  0.3806E+00  0.8070E+00  0.5339E+00  0.6461E-02  0.5355E+00  0.8092E+00
     17.051  0.2656E-01 -0.1894E-01  0.4898E-02 -0.1836E-01 -0.3842E-01 -0.2455E-01  0.1296E-01 -0.2508E-01 -0.3951E-01
     17.338 -0.1435E-02 -0.1875E-03 -0.2682E-03 -0.1784E-03 -0.3665E-03 -0.4820E-03 -0.8019E-03 -0.4435E-03 -0.3767E-03
     17.625  0.9239E-04 -0.5205E-05  0.2231E-04 -0.7190E-05 -0.1744E-04 -0.6007E-06  0.1411E-03 -0.1703E-05 -0.1417E-04
     17.912  0.3710E-01  0.1784E-05  0.8625E-02  0.4500E-05  0.6234E-05  0.1338E-05  0.4966E-01  0.3248E-05  0.2471E-05
     18.199 -0.7957E-03  0.1407E-06  0.7441E-03  0.4107E-06  0.5330E-06  0.7708E-07 -0.7446E-02  0.2590E-06  0.1867E-06
     18.486  0.8673E-01 -0.4818E-07  0.2005E-02 -0.1361E-06  0.5396E-06  0.1506E-06  0.2389E+00  0.3696E-06  0.1829E-06
     18.773  0.6400E-01  0.6559E-06  0.1634E-02  0.1836E-05  0.1263E-05  0.4280E-06  0.2041E+00  0.1161E-05  0.4535E-06
     19.060  0.5128E-01  0.2471E-05  0.7863E-02  0.6946E-05  0.4474E-05  0.1101E-05  0.2321E+00  0.3071E-05  0.1630E-05
     19.347  0.5119E-02  0.1677E-05  0.2637E-01  0.4800E-05  0.6619E-05  0.2353E-06  0.3496E-01  0.7237E-06  0.2402E-05
     19.634 -0.4111E-03 -0.2306E-06 -0.1276E-02 -0.6379E-06 -0.8521E-06 -0.1414E-06 -0.3962E-02 -0.3980E-06 -0.3026E-06
     19.921  0.2718E-02  0.2725E-05  0.4849E-02  0.7441E-05  0.1131E-04  0.2139E-05  0.4312E-01  0.5996E-05  0.3995E-05
     20.209  0.3746E-02  0.1029E-04  0.9360E-01  0.2869E-04  0.1843E-04  0.5113E-05  0.6063E-01  0.1436E-04  0.6465E-05
     20.496 -0.7466E-04  0.1540E-04  0.1767E+00  0.4345E-04  0.6534E-05  0.5097E-05  0.1153E-02  0.1435E-04  0.2202E-05
     20.783  0.1406E-03 -0.1129E-05  0.5813E+00 -0.3155E-05  0.7964E-06 -0.2692E-06  0.2008E-01 -0.7471E-06  0.2997E-06
     21.070  0.8276E-03  0.1084E-04  0.4021E+00  0.3079E-04  0.8712E-06  0.1706E-05  0.4984E-01  0.4893E-05  0.2979E-06
     21.357  0.2316E-03  0.3695E-05  0.1527E-01  0.1002E-04  0.2056E-06  0.6463E-06  0.1181E-01  0.1706E-05  0.7857E-07
     21.644 -0.1479E-04 -0.2597E-06 -0.2123E-02 -0.6952E-06 -0.3365E-07 -0.3620E-07 -0.7790E-03 -0.1005E-06 -0.1518E-07
     21.931 -0.6197E-07 -0.3651E-03 -0.4406E-05 -0.5667E-03 -0.1814E-03 -0.3476E-06 -0.1475E-05 -0.7966E-06 -0.1143E-03
     22.218 -0.1327E-05 -0.2708E-01 -0.2047E-04 -0.2509E-01 -0.7991E-02 -0.2054E-04 -0.9610E-06 -0.3202E-04 -0.8420E-02
     22.505  0.1209E-04  0.5169E+00  0.2141E-03  0.5499E+00  0.1732E+00  0.3425E-03  0.2262E-04  0.6300E-03  0.1578E+00
     22.792 -0.3874E-03  0.5822E+00  0.4461E-02  0.4839E+00  0.1902E+00  0.1578E-02 -0.6667E-05  0.2105E-02  0.2329E+00
     23.079  0.1159E-01  0.1243E+00  0.9951E-02  0.1970E+00  0.9151E-01  0.8569E-03  0.3629E-03  0.1692E-02  0.6510E-01
     23.366  0.2585E-01 -0.8298E-02  0.2736E-03 -0.1138E-01 -0.4839E-02 -0.3570E-04  0.8109E-03 -0.5101E-04 -0.3999E-02
     23.653 -0.1367E-02  0.7145E-05 -0.5151E-04 -0.5744E-04 -0.6069E-04  0.5518E-05 -0.4479E-04  0.3294E-05 -0.1653E-04
     23.941  0.2241E-02 -0.3098E-03  0.1363E-03 -0.1029E-03 -0.7971E-04 -0.2239E-02  0.1088E-03 -0.1029E-02 -0.1519E-03
     24.228  0.1172E-01  0.5192E-02  0.6256E-03  0.1564E-02 -0.4436E-03  0.3207E-01  0.1758E-03  0.7006E-02  0.1620E-02
     24.515  0.5593E-02  0.1944E-01 -0.4516E-03  0.1415E-01  0.4460E-01  0.1711E+00  0.4608E-02  0.2127E+00  0.2591E-01
     24.802  0.3232E-01  0.1084E-01  0.2919E-01  0.6104E-02  0.3078E-01  0.1141E+00  0.6151E-01  0.9111E-01  0.3549E-01
     25.089 -0.6020E-02  0.1029E-01  0.2057E+00  0.1216E-01  0.1404E-01 -0.4089E-02  0.1483E-01 -0.3399E-02  0.8150E-02