    9    9    1    1
  0.3416450E+02  0.3185000E-09  0.3185000E-09  0.3500000E-08  0.5000000E-15
  1.000000000000000E-004
  CAR 
 unknown system                          
     54      1    388
 
  0.0000000E+00  0.0000000E+00  0.0000000E+00  0.1000000E+01
    1      -15.780696   1.000000
    2      -15.723168   1.000000
    3      -15.513633   1.000000
    4      -14.694529   1.000000
    5      -13.972997   1.000000
    6      -13.952934   1.000000
    7       -6.784605   1.000000
    8       -6.539186   1.000000
    9       -6.161696   1.000000
   10       -3.898419   1.000000
   11       -3.898322   1.000000
   12       -3.604086   1.000000
   13       -3.603971   1.000000
   14       -2.578184   1.000000
   15       -2.577845   1.000000
   16       -2.459667   1.000000
   17       -2.459645   1.000000
   18       -2.338165   1.000000
   19       -2.337729   1.000000
   20       -2.314968   1.000000
   21       -2.195705   1.000000
   22       -1.958864   1.000000
   23       -1.403609   1.000000
   24       -1.403533   1.000000
   25        0.159102   1.000231
   26        0.510565   1.031289
   27        0.580543   0.968480
   28        2.292778  -0.000000
   29        2.293217  -0.000000
   30        2.667816  -0.000000
   31        2.668384  -0.000000
   32        2.817644  -0.000000
   33        2.817815  -0.000000
   34        3.013053  -0.000000
   35        3.013294  -0.000000
   36        3.015545  -0.000000
   37        3.015642  -0.000000
   38        3.386405  -0.000000
   39        3.386442  -0.000000
   40        4.933424  -0.000000
   41        5.401978  -0.000000
   42        5.425783  -0.000000
   43        5.716025  -0.000000
   44        5.925449  -0.000000
   45        6.081987  -0.000000
   46        6.246991   0.000000
   47        6.702611   0.000000
   48        8.107609   0.000000
   49        8.314858   0.000000
   50        8.489111   0.000000
   51        8.567659   0.000000
   52        8.703533   0.000000
   53        9.474393   0.000000
   54        9.898022   0.000000
   55        9.899037   0.000000
   56        9.900934   0.000000
   57        9.901580   0.000000
   58       10.301606   0.000000
   59       10.570188   0.000000
   60       10.570219   0.000000
   61       11.258837   0.000000
   62       12.645576   0.000000
   63       12.645798   0.000000
   64       12.722722   0.000000
   65       12.723166   0.000000
   66       12.808744   0.000000
   67       12.894116   0.000000
   68       12.894176   0.000000
   69       13.115520   0.000000
   70       13.191900   0.000000
   71       13.596438   0.000000
   72       14.156379   0.000000
   73       14.450005   0.000000
   74       14.913299   0.000000
   75       15.533778   0.000000
   76       15.818547   0.000000
   77       16.147572   0.000000
   78       16.491825   0.000000
   79       16.492242   0.000000
   80       16.522063   0.000000
   81       16.524417   0.000000
   82       16.614399   0.000000
   83       16.616256   0.000000
   84       16.804533   0.000000
   85       16.897807   0.000000
   86       16.898565   0.000000
   87       17.162849   0.000000
   88       17.162915   0.000000
   89       17.700621   0.000000
   90       17.700649   0.000000
   91       17.793335   0.000000
   92       18.449286   0.000000
   93       18.838886   0.000000
   94       19.149466   0.000000
   95       19.939353   0.000000
   96       20.263374   0.000000
   97       20.742065   0.000000
   98       21.004359   0.000000
   99       21.160791   0.000000
  100       21.160817   0.000000
  101       22.442288   0.000000
  102       22.483683   0.000000
  103       22.740633   0.000000
  104       22.790929   0.000000
  105       22.840452   0.000000
  106       23.128659   0.000000
  107       23.615902   0.000000
  108       23.615923   0.000000
  109       24.032887   0.000000
  110       24.283942   0.000000
  111       24.403106   0.000000
  112       24.498935   0.000000
  113       24.588201   0.000000
  114       24.597406   0.000000
  115       24.726711   0.000000
  116       24.890694   0.000000
  117       24.971830   0.000000
  118       24.978069   0.000000
  119       25.013664   0.000000
  120       25.227495   0.000000
  121       25.306335   0.000000
  122       25.323589   0.000000
  123       25.339204   0.000000
  124       25.370223   0.000000
  125       25.376325   0.000000
  126       25.466902   0.000000
  127       25.479315   0.000000
  128       25.709620   0.000000
  129       25.859201   0.000000
  130       25.988110   0.000000
  131       26.040557   0.000000
  132       26.051852   0.000000
  133       26.086074   0.000000
  134       26.117214   0.000000
  135       26.294954   0.000000
  136       26.540618   0.000000
  137       26.588807   0.000000
  138       26.757494   0.000000
  139       27.025404   0.000000
  140       27.059364   0.000000
  141       27.214469   0.000000
  142       27.231137   0.000000
  143       27.266603   0.000000
  144       27.424269   0.000000
  145       27.542184   0.000000
  146       27.543117   0.000000
  147       27.622977   0.000000
  148       27.768466   0.000000
  149       27.778441   0.000000
  150       27.969753   0.000000
  151       28.344371   0.000000
  152       28.411458   0.000000
  153       28.503691   0.000000
  154       28.542459   0.000000
  155       28.613032   0.000000
  156       28.682443   0.000000
  157       28.843836   0.000000
  158       29.196982   0.000000
  159       29.255941   0.000000
  160       29.268047   0.000000
  161       29.451330   0.000000
  162       29.502267   0.000000
  163       29.561677   0.000000
  164       29.888476   0.000000
  165       30.010445   0.000000
  166       30.127847   0.000000
  167       30.169427   0.000000
  168       30.253329   0.000000
  169       30.415524   0.000000
  170       30.505595   0.000000
  171       30.663742   0.000000
  172       30.805111   0.000000
  173       30.979271   0.000000
  174       31.285954   0.000000
  175       31.396273   0.000000
  176       31.474020   0.000000
  177       31.607927   0.000000
  178       31.617621   0.000000
  179       32.198088   0.000000
  180       32.276437   0.000000
  181       32.586822   0.000000
  182       32.592575   0.000000
  183       32.676808   0.000000
  184       32.860034   0.000000
  185       33.209517   0.000000
  186       33.274446   0.000000
  187       33.348408   0.000000
  188       33.776068   0.000000
  189       33.835170   0.000000
  190       33.858569   0.000000
  191       33.993342   0.000000
  192       34.141316   0.000000
  193       34.405518   0.000000
  194       34.417547   0.000000
  195       34.806820   0.000000
  196       34.839328   0.000000
  197       34.877198   0.000000
  198       34.995125   0.000000
  199       35.080540   0.000000
  200       35.348874   0.000000
  201       35.406517   0.000000
  202       35.804336   0.000000
  203       36.188599   0.000000
  204       36.197276   0.000000
  205       36.552911   0.000000
  206       36.580082   0.000000
  207       36.651996   0.000000
  208       36.727880   0.000000
  209       36.796222   0.000000
  210       36.994925   0.000000
  211       37.323579   0.000000
  212       37.368750   0.000000
  213       37.386344   0.000000
  214       37.658443   0.000000
  215       37.686542   0.000000
  216       37.788387   0.000000
  217       38.101028   0.000000
  218       38.344971   0.000000
  219       38.543289   0.000000
  220       38.647717   0.000000
  221       38.699988   0.000000
  222       38.759340   0.000000
  223       38.882380   0.000000
  224       39.242555   0.000000
  225       39.299779   0.000000
  226       39.469485   0.000000
  227       39.521238   0.000000
  228       39.603681   0.000000
  229       39.686861   0.000000
  230       39.737719   0.000000
  231       40.171607   0.000000
  232       40.185883   0.000000
  233       40.415724   0.000000
  234       40.442829   0.000000
  235       40.582137   0.000000
  236       40.750739   0.000000
  237       40.771009   0.000000
  238       41.010545   0.000000
  239       41.036620   0.000000
  240       41.335833   0.000000
  241       41.421581   0.000000
  242       41.446747   0.000000
  243       41.487601   0.000000
  244       41.736920   0.000000
  245       41.763954   0.000000
  246       41.950299   0.000000
  247       41.965029   0.000000
  248       42.137414   0.000000
  249       42.150086   0.000000
  250       42.601103   0.000000
  251       42.607260   0.000000
  252       42.609146   0.000000
  253       42.657643   0.000000
  254       42.841651   0.000000
  255       42.847043   0.000000
  256       42.963234   0.000000
  257       43.097707   0.000000
  258       43.118437   0.000000
  259       43.190013   0.000000
  260       43.285260   0.000000
  261       43.436835   0.000000
  262       43.980299   0.000000
  263       43.998977   0.000000
  264       44.363598   0.000000
  265       44.518492   0.000000
  266       44.533123   0.000000
  267       44.564601   0.000000
  268       44.589151   0.000000
  269       45.014655   0.000000
  270       45.064090   0.000000
  271       45.235434   0.000000
  272       45.282175   0.000000
  273       45.440232   0.000000
  274       45.514044   0.000000
  275       45.519774   0.000000
  276       45.534721   0.000000
  277       45.635303   0.000000
  278       45.772848   0.000000
  279       45.880670   0.000000
  280       45.894820   0.000000
  281       46.233681   0.000000
  282       46.350710   0.000000
  283       46.499199   0.000000
  284       46.613564   0.000000
  285       46.742390   0.000000
  286       46.920794   0.000000
  287       47.087537   0.000000
  288       47.129479   0.000000
  289       47.383669   0.000000
  290       47.707995   0.000000
  291       47.748001   0.000000
  292       47.900532   0.000000
  293       47.936432   0.000000
  294       48.907752   0.000000
  295       49.028798   0.000000
  296       49.108468   0.000000
  297       49.173972   0.000000
  298       49.200619   0.000000
  299       49.852035   0.000000
  300       49.906936   0.000000
  301       50.077030   0.000000
  302       50.298672   0.000000
  303       50.597695   0.000000
  304       50.694088   0.000000
  305       50.715520   0.000000
  306       50.930114   0.000000
  307       51.072908   0.000000
  308       51.078769   0.000000
  309       51.663899   0.000000
  310       51.862350   0.000000
  311       52.153952   0.000000
  312       52.277981   0.000000
  313       52.453915   0.000000
  314       52.703822   0.000000
  315       52.824987   0.000000
  316       53.041409   0.000000
  317       53.181432   0.000000
  318       53.348454   0.000000
  319       53.831837   0.000000
  320       54.309629   0.000000
  321       54.325614   0.000000
  322       54.445349   0.000000
  323       54.739940   0.000000
  324       55.188100   0.000000
  325       55.349617   0.000000
  326       55.439440   0.000000
  327       55.508497   0.000000
  328       55.619136   0.000000
  329       56.014807   0.000000
  330       56.119710   0.000000
  331       56.142109   0.000000
  332       56.422492   0.000000
  333       56.467685   0.000000
  334       56.557732   0.000000
  335       56.621192   0.000000
  336       56.672881   0.000000
  337       56.808454   0.000000
  338       57.097171   0.000000
  339       57.107456   0.000000
  340       57.182995   0.000000
  341       57.353156   0.000000
  342       57.388364   0.000000
  343       57.437385   0.000000
  344       57.747617   0.000000
  345       57.825771   0.000000
  346       57.871260   0.000000
  347       57.917410   0.000000
  348       58.009092   0.000000
  349       58.238241   0.000000
  350       58.255614   0.000000
  351       58.309234   0.000000
  352       58.344105   0.000000
  353       58.731030   0.000000
  354       58.758396   0.000000
  355       58.773622   0.000000
  356       58.917368   0.000000
  357       58.970200   0.000000
  358       59.146491   0.000000
  359       59.203526   0.000000
  360       59.384249   0.000000
  361       59.440570   0.000000
  362       59.508776   0.000000
  363       59.699648   0.000000
  364       59.747004   0.000000
  365       59.847704   0.000000
  366       59.967557   0.000000
  367       60.114850   0.000000
  368       60.155685   0.000000
  369       60.358709   0.000000
  370       60.543373   0.000000
  371       60.718744   0.000000
  372       60.860996   0.000000
  373       61.168586   0.000000
  374       61.209750   0.000000
  375       61.226509   0.000000
  376       61.374812   0.000000
  377       61.489577   0.000000
  378       61.524948   0.000000
  379       61.639289   0.000000
  380       61.845105   0.000000
  381       62.043536   0.000000
  382       62.121205   0.000000
  383       62.163388   0.000000
  384       62.184054   0.000000
  385       62.367423   0.000000
  386       62.470482   0.000000
  387       62.502050   0.000000
  388       62.513448   0.000000
