       N       E                     dE             d eps       ncg     rms          rms(c)
DAV:   1     0.234699577019E+03    0.23470E+03   -0.56486E+03   784   0.579E+01
DAV:   2    -0.354281826580E+02   -0.27013E+03   -0.23782E+03   944   0.327E+01
DAV:   3    -0.465431078063E+02   -0.11115E+02   -0.10934E+02   912   0.702E+00
DAV:   4    -0.465680115227E+02   -0.24904E-01   -0.24899E-01   912   0.322E-01
DAV:   5    -0.465680618311E+02   -0.50308E-04   -0.50308E-04   880   0.143E-02    0.456E+01
DAV:   6    -0.433851711662E+02    0.31829E+01   -0.45051E-01   872   0.141E+00    0.303E+01
DAV:   7    -0.468526152301E+02   -0.34674E+01   -0.35634E-01   888   0.157E+00    0.178E+01
DAV:   8    -0.419566257797E+02    0.48960E+01   -0.48392E-01   856   0.107E+00    0.270E+00
DAV:   9    -0.419500498919E+02    0.65759E-02   -0.83272E-02   888   0.199E-01    0.161E+00
DAV:  10    -0.419377780064E+02    0.12272E-01   -0.20164E-02   912   0.695E-02    0.987E-01
DAV:  11    -0.419468413739E+02   -0.90634E-02   -0.30090E-01   896   0.107E-01    0.546E-01
DAV:  12    -0.419425151802E+02    0.43262E-02   -0.36898E-04   880   0.463E-02    0.249E-01
DAV:  13    -0.419396730814E+02    0.28421E-02   -0.55238E-04   896   0.188E-02    0.236E-01
DAV:  14    -0.419398619185E+02   -0.18884E-03   -0.60710E-05   864   0.509E-03    0.222E-01
DAV:  15    -0.419397048852E+02    0.15703E-03   -0.22626E-06   920   0.721E-04    0.229E-01
DAV:  16    -0.419403653898E+02   -0.66050E-03   -0.12601E-04   888   0.427E-03    0.205E-01
DAV:  17    -0.419401536345E+02    0.21176E-03   -0.59562E-05   904   0.576E-03    0.207E-01
DAV:  18    -0.419400502991E+02    0.10334E-03   -0.18390E-06   872   0.735E-04    0.210E-01
DAV:  19    -0.419422183448E+02   -0.21680E-02    0.51082E-03   888   0.154E-02    0.535E-01
DAV:  20    -0.419435050324E+02   -0.12867E-02   -0.12456E-04   888   0.100E-02    0.778E-01
DAV:  21    -0.419440794483E+02   -0.57442E-03   -0.15980E-05   912   0.346E-03    0.717E-01
DAV:  22    -0.419443934636E+02   -0.31402E-03   -0.21937E-06   896   0.143E-03    0.655E-01
DAV:  23    -0.419461356818E+02   -0.17422E-02   -0.10764E-05   896   0.564E-03    0.489E-01
DAV:  24    -0.419471404829E+02   -0.10048E-02   -0.29081E-06   912   0.302E-03    0.522E-01
DAV:  25    -0.419510066357E+02   -0.38662E-02   -0.76831E-06   896   0.857E-03    0.559E-01
DAV:  26    -0.419546057308E+02   -0.35991E-02   -0.89713E-06   912   0.626E-03    0.581E-01
DAV:  27    -0.419559722359E+02   -0.13665E-02   -0.74737E-06   904   0.255E-03    0.631E-01
DAV:  28    -0.419494147799E+02    0.65575E-02   -0.42547E-05   864   0.127E-02    0.241E-01
DAV:  29    -0.419462783330E+02    0.31364E-02   -0.27997E-05   904   0.801E-03    0.141E-01
DAV:  30    -0.419419376534E+02    0.43407E-02    0.86316E-03   936   0.156E-02    0.156E-01
DAV:  31    -0.419386820424E+02    0.32556E-02   -0.57513E-02   984   0.174E-02    0.299E-01
DAV:  32    -0.419342428569E+02    0.44392E-02   -0.38961E-02   864   0.137E-02    0.156E-01
DAV:  33    -0.419343199892E+02   -0.77132E-04   -0.93067E-03   832   0.694E-03    0.130E-01
DAV:  34    -0.419347992662E+02   -0.47928E-03   -0.14580E-02   848   0.879E-03    0.157E-01
DAV:  35    -0.419357925324E+02   -0.99327E-03   -0.35713E-02   864   0.970E-03    0.193E-01
DAV:  36    -0.419347235509E+02    0.10690E-02   -0.19717E-02   832   0.877E-03    0.823E-02
DAV:  37    -0.419348226971E+02   -0.99146E-04   -0.17844E-03   840   0.456E-03    0.269E-02
DAV:  38    -0.419349056359E+02   -0.82939E-04   -0.10081E-05   856   0.977E-04    0.292E-02
DAV:  39    -0.419346980132E+02    0.20762E-03   -0.48214E-04   872   0.160E-03    0.566E-02
DAV:  40    -0.419342959959E+02    0.40202E-03   -0.51103E-03   896   0.474E-03    0.888E-02
DAV:  41    -0.419338786879E+02    0.41731E-03   -0.83059E-04   864   0.303E-03    0.465E-02
DAV:  42    -0.419336353762E+02    0.24331E-03   -0.81497E-05   872   0.126E-03    0.657E-02
DAV:  43    -0.419343685051E+02   -0.73313E-03   -0.19894E-03   888   0.365E-03    0.480E-02
DAV:  44    -0.419349949700E+02   -0.62646E-03   -0.41090E-03   880   0.413E-03    0.862E-02
DAV:  45    -0.419353173040E+02   -0.32233E-03   -0.60011E-04   864   0.292E-03    0.482E-02
DAV:  46    -0.419357079883E+02   -0.39068E-03   -0.53274E-05   880   0.127E-03    0.401E-02
DAV:  47    -0.419357942203E+02   -0.86232E-04   -0.16978E-06   840   0.500E-04    0.390E-02
DAV:  48    -0.419357986139E+02   -0.43936E-05   -0.51365E-06   872   0.160E-04    0.418E-02
DAV:  49    -0.419358313052E+02   -0.32691E-04   -0.96830E-07   832   0.126E-04    0.411E-02
DAV:  50    -0.419359393582E+02   -0.10805E-03   -0.18167E-05   928   0.364E-04    0.367E-02
DAV:  51    -0.419358436918E+02    0.95666E-04   -0.84003E-04   856   0.145E-03    0.487E-02
DAV:  52    -0.419354397064E+02    0.40399E-03   -0.20362E-04   880   0.180E-03    0.298E-02
DAV:  53    -0.419350314901E+02    0.40822E-03   -0.16202E-06   864   0.117E-03    0.258E-02
DAV:  54    -0.419341524221E+02    0.87907E-03   -0.26797E-06  1048   0.296E-03    0.223E-02
DAV:  55    -0.419314113257E+02    0.27411E-02   -0.83287E-05   936   0.367E-03    0.150E-01
DAV:  56    -0.419280356565E+02    0.33757E-02   -0.99380E-05   864   0.267E-03    0.249E-01
DAV:  57    -0.419268349756E+02    0.12007E-02   -0.13310E-05   824   0.216E-03    0.261E-01
DAV:  58    -0.419252270559E+02    0.16079E-02   -0.23813E-06   912   0.664E-04    0.258E-01
DAV:  59    -0.419218450951E+02    0.33820E-02   -0.88849E-03  1016   0.132E-03    0.292E-02
DAV:  60    -0.419252585855E+02   -0.34135E-02   -0.17401E-02   856   0.409E-03    0.254E-01
DAV:  61    -0.419224479374E+02    0.28106E-02   -0.37637E-03   816   0.343E-03    0.134E-01
DAV:  62    -0.419223249653E+02    0.12297E-03   -0.99045E-06   816   0.163E-03    0.958E-02
DAV:  63    -0.419234892667E+02   -0.11643E-02   -0.42786E-04   856   0.111E-03    0.199E-01
DAV:  64    -0.419235944739E+02   -0.10521E-03   -0.77574E-06   800   0.160E-03    0.209E-01
DAV:  65    -0.419226506500E+02    0.94382E-03   -0.59542E-04   872   0.711E-04    0.149E-01
DAV:  66    -0.419222525889E+02    0.39806E-03   -0.27857E-06   848   0.924E-04    0.881E-02
DAV:  67    -0.419221349952E+02    0.11759E-03   -0.49014E-05   824   0.132E-03    0.262E-02
DAV:  68    -0.419222086787E+02   -0.73683E-04   -0.21950E-05   816   0.184E-03    0.439E-02
DAV:  69    -0.419224939159E+02   -0.28524E-03   -0.26742E-06   848   0.709E-04    0.117E-01
DAV:  70    -0.419222990792E+02    0.19484E-03   -0.24652E-05   816   0.263E-03    0.846E-02
DAV:  71    -0.419268044795E+02   -0.45054E-02   -0.13380E-02   928   0.118E-03    0.406E-01
DAV:  72    -0.419217634187E+02    0.50411E-02   -0.51542E-02   856   0.521E-03    0.690E-02
DAV:  73    -0.419373194611E+02   -0.15556E-01   -0.13473E-01   856   0.698E-03    0.376E-01
DAV:  74    -0.419299493588E+02    0.73701E-02   -0.25217E-01   872   0.810E-03    0.202E-01
DAV:  75    -0.419389923456E+02   -0.90430E-02   -0.25201E-01   864   0.990E-03    0.308E-01
DAV:  76    -0.419233655954E+02    0.15627E-01   -0.94142E-02   840   0.748E-03    0.204E-01
DAV:  77    -0.419269406672E+02   -0.35751E-02   -0.93994E-02   820   0.937E-03    0.410E-01
DAV:  78    -0.419221035814E+02    0.48371E-02   -0.55927E-03   796   0.790E-03    0.113E-01
DAV:  79    -0.419315960480E+02   -0.94925E-02   -0.10052E-02   856   0.374E-03    0.475E-01
DAV:  80    -0.419214005382E+02    0.10196E-01   -0.37532E-02   856   0.541E-03    0.462E-02
DAV:  81    -0.419263637762E+02   -0.49632E-02   -0.28138E-02   820   0.607E-03    0.392E-01
DAV:  82    -0.419217450620E+02    0.46187E-02   -0.48210E-02   824   0.481E-03    0.665E-02
DAV:  83    -0.419225622103E+02   -0.81715E-03   -0.89982E-05   804   0.601E-03    0.127E-01
DAV:  84    -0.419245134397E+02   -0.19512E-02   -0.19075E-02   864   0.268E-03    0.239E-01
DAV:  85    -0.419281459751E+02   -0.36325E-02   -0.94127E-05   816   0.575E-03    0.245E-01
DAV:  86    -0.419298650933E+02   -0.17191E-02   -0.73386E-06   896   0.143E-03    0.196E-01
DAV:  87    -0.419321472354E+02   -0.22821E-02   -0.21878E-06   872   0.112E-03    0.982E-02
DAV:  88    -0.419332901444E+02   -0.11429E-02   -0.98944E-06   864   0.203E-03    0.452E-02
DAV:  89    -0.419337654175E+02   -0.47527E-03   -0.43005E-06   880   0.150E-03    0.239E-02
DAV:  90    -0.419339940725E+02   -0.22866E-03   -0.13476E-06   888   0.941E-04    0.176E-02
DAV:  91    -0.419342856632E+02   -0.29159E-03   -0.12839E-07   928   0.112E-03    0.163E-02
DAV:  92    -0.419343547410E+02   -0.69078E-04   -0.12012E-07   880   0.335E-04    0.167E-02
DAV:  93    -0.419345627975E+02   -0.20806E-03   -0.10125E-07  1064   0.745E-04    0.184E-02
DAV:  94    -0.419345613129E+02    0.14846E-05   -0.16929E-08   824   0.866E-05    0.185E-02
DAV:  95    -0.419347281874E+02   -0.16687E-03   -0.40657E-09  1000   0.552E-04    0.200E-02
DAV:  96    -0.419347174212E+02    0.10766E-04   -0.15977E-08   800   0.789E-05    0.199E-02
DAV:  97    -0.419346905804E+02    0.26841E-04   -0.43151E-10   768   0.925E-05    0.197E-02
DAV:  98    -0.419346620043E+02    0.28576E-04   -0.98366E-10   680   0.936E-05    0.194E-02
DAV:  99    -0.419346416531E+02    0.20351E-04   -0.72436E-10   848   0.702E-05    0.193E-02
DAV: 100    -0.419346208528E+02    0.20800E-04   -0.57970E-10   576   0.697E-05    0.191E-02
DAV: 101    -0.419346135569E+02    0.72959E-05   -0.67843E-10   840   0.273E-05    0.190E-02
DAV: 102    -0.419346092602E+02    0.42967E-05   -0.16884E-10   512   0.147E-05    0.190E-02
DAV: 103    -0.419345946376E+02    0.14623E-04   -0.10961E-09   576   0.497E-05    0.188E-02
DAV: 104    -0.419346042631E+02   -0.96256E-05   -0.36251E-10   576   0.330E-05    0.189E-02
DAV: 105    -0.419345942722E+02    0.99909E-05   -0.18184E-10   528   0.331E-05    0.188E-02
DAV: 106    -0.419345716931E+02    0.22579E-04   -0.45623E-09   592   0.765E-05    0.186E-02
DAV: 107    -0.419345331904E+02    0.38503E-04   -0.56880E-10   608   0.132E-04    0.182E-02
DAV: 108    -0.419345096143E+02    0.23576E-04   -0.96247E-10   800   0.838E-05    0.180E-02
DAV: 109    -0.419344927534E+02    0.16861E-04   -0.66139E-10   768   0.597E-05    0.179E-02
DAV: 110    -0.419344393023E+02    0.53451E-04   -0.33269E-10   688   0.189E-04    0.174E-02
DAV: 111    -0.419342744341E+02    0.16487E-03   -0.70825E-09  1088   0.613E-04    0.163E-02
DAV: 112    -0.419341898951E+02    0.84539E-04   -0.14661E-08   976   0.337E-04    0.161E-02
DAV: 113    -0.419340769065E+02    0.11299E-03   -0.25827E-09   904   0.436E-04    0.165E-02
DAV: 114    -0.419341217939E+02   -0.44887E-04   -0.11667E-08   840   0.186E-04    0.162E-02
DAV: 115    -0.419341388832E+02   -0.17089E-04   -0.48566E-10   696   0.668E-05    0.161E-02
DAV: 116    -0.419341971349E+02   -0.58252E-04   -0.56605E-10   616   0.224E-04    0.160E-02
DAV: 117    -0.419341668854E+02    0.30249E-04   -0.12619E-09   832   0.119E-04    0.160E-02
DAV: 118    -0.419342122989E+02   -0.45413E-04   -0.57778E-10   856   0.176E-04    0.161E-02
DAV: 119    -0.419343144703E+02   -0.10217E-03   -0.39884E-09   960   0.391E-04    0.165E-02
DAV: 120    -0.419342071366E+02    0.10733E-03   -0.44477E-09   984   0.412E-04
   1 F= -.41934207E+02 E0= -.41942655E+02  d E =0.253449E-01
