 vasp.5.4.1 24Jun15 (build Nov 28 2018 15:56:34) complex                        
  
 executed on           IFC91_ompi date 2024.05.07  12:10:22
 running on    1 total cores
 distrk:  each k-point on    1 cores,    1 groups
 distr:  one band on NCORES_PER_BAND=   1 cores,    1 groups


--------------------------------------------------------------------------------------------------------


 INCAR:
 POTCAR:    PAW_PBE Mo 08Apr2002                  
 POTCAR:    PAW_PBE S 06Sep2000                   
 POTCAR:    PAW_PBE Se 06Sep2000                  
 POTCAR:    PAW_PBE W 08Apr2002                   
 POTCAR:    PAW_PBE Mo 08Apr2002                  
   VRHFIN =Mo: 4p5s4d                                                           
   LEXCH  = PE                                                                  
   EATOM  =   217.5176 eV,   15.9871 Ry                                         
                                                                                
   TITEL  = PAW_PBE Mo 08Apr2002                                                
   LULTRA =        F    use ultrasoft PP ?                                      
   IUNSCR =        1    unscreen: 0-lin 1-nonlin 2-no                           
   RPACOR =    2.200    partial core radius                                     
   POMASS =   95.940; ZVAL   =    6.000    mass and valenz                      
   RCORE  =    2.750    outmost cutoff radius                                   
   RWIGS  =    2.750; RWIGS  =    1.455    wigner-seitz radius (au A)           
   ENMAX  =  224.584; ENMIN  =  168.438 eV                                      
   RCLOC  =    2.111    cutoff for local pot                                    
   LCOR   =        T    correct aug charges                                     
   LPAW   =        T    paw PP                                                  
   EAUG   =  345.278                                                            
   DEXC   =    0.000                                                            
   RMAX   =    2.821    core radius for proj-oper                               
   RAUG   =    1.300    factor for augmentation sphere                          
   RDEP   =    2.815    radius for radial grids                                 
   RDEPT  =    2.211    core radius for aug-charge                              
                                                                                
   Atomic configuration                                                         
   12 entries                                                                   
     n  l   j            E        occ.                                          
     1  0  0.50    -19819.0341   2.0000                                         
     2  0  0.50     -2799.0127   2.0000                                         
     2  1  1.50     -2502.0276   6.0000                                         
     3  0  0.50      -476.4448   2.0000                                         
     3  1  1.50      -379.1496   6.0000                                         
     3  2  2.50      -220.9367  10.0000                                         
     4  0  0.50       -64.3378   2.0000                                         
     4  1  1.50       -38.4773   6.0000                                         
     4  2  2.50        -3.7535   5.0000                                         
     5  0  0.50        -4.0862   1.0000                                         
     5  1  0.50        -2.7701   0.0000                                         
     4  3  2.50        -1.3606   0.0000                                         
   Description                                                                  
     l       E           TYP  RCUT    TYP  RCUT                                 
     2     -3.7534765     23  2.500                                             
     2     -5.1140591     23  2.500                                             
     0     -4.0861560     23  2.600                                             
     0     13.6058260     23  2.600                                             
     1      5.4423304     23  2.750                                             
     1     27.2116520     23  2.750                                             
  local pseudopotential read in
  partial core-charges read in
  partial kinetic energy density read in
  atomic valenz-charges read in
  non local Contribution for L=           2  read in
    real space projection operators read in
  non local Contribution for L=           2  read in
    real space projection operators read in
  non local Contribution for L=           0  read in
    real space projection operators read in
  non local Contribution for L=           0  read in
    real space projection operators read in
  non local Contribution for L=           1  read in
    real space projection operators read in
  non local Contribution for L=           1  read in
    real space projection operators read in
    PAW grid and wavefunctions read in
 
   number of l-projection  operators is LMAX  =           6
   number of lm-projection operators is LMMAX =          18
 
 POTCAR:    PAW_PBE S 06Sep2000                   
   VRHFIN =S : s2p4                                                             
   LEXCH  = PE                                                                  
   EATOM  =   276.8230 eV,   20.3459 Ry                                         
                                                                                
   TITEL  = PAW_PBE S 06Sep2000                                                 
   LULTRA =        F    use ultrasoft PP ?                                      
   IUNSCR =        1    unscreen: 0-lin 1-nonlin 2-no                           
   RPACOR =    1.500    partial core radius                                     
   POMASS =   32.066; ZVAL   =    6.000    mass and valenz                      
   RCORE  =    1.900    outmost cutoff radius                                   
   RWIGS  =    2.200; RWIGS  =    1.164    wigner-seitz radius (au A)           
   ENMAX  =  258.689; ENMIN  =  194.016 eV                                      
   ICORE  =        2    local potential                                         
   LCOR   =        T    correct aug charges                                     
   LPAW   =        T    paw PP                                                  
   EAUG   =  335.092                                                            
   DEXC   =    0.000                                                            
   RMAX   =    1.942    core radius for proj-oper                               
   RAUG   =    1.300    factor for augmentation sphere                          
   RDEP   =    1.954    radius for radial grids                                 
   RDEPT  =    1.744    core radius for aug-charge                              
                                                                                
   Atomic configuration                                                         
    6 entries                                                                   
     n  l   j            E        occ.                                          
     1  0  0.50     -2405.8406   2.0000                                         
     2  0  0.50      -211.7007   2.0000                                         
     2  1  1.50      -156.4958   6.0000                                         
     3  0  0.50       -17.2562   2.0000                                         
     3  1  0.50        -7.0085   4.0000                                         
     3  2  1.50        -6.8029   0.0000                                         
   Description                                                                  
     l       E           TYP  RCUT    TYP  RCUT                                 
     0    -17.2561641     23  1.900                                             
     0    -15.8743224     23  1.900                                             
     1     -7.0085400     23  1.900                                             
     1     -2.7779785     23  1.900                                             
     2     -6.8029130     23  1.900                                             
  local pseudopotential read in
  partial core-charges read in
  partial kinetic energy density read in
  atomic valenz-charges read in
  non local Contribution for L=           0  read in
    real space projection operators read in
  non local Contribution for L=           0  read in
    real space projection operators read in
  non local Contribution for L=           1  read in
    real space projection operators read in
  non local Contribution for L=           1  read in
    real space projection operators read in
    PAW grid and wavefunctions read in
 
   number of l-projection  operators is LMAX  =           4
   number of lm-projection operators is LMMAX =           8
 
 POTCAR:    PAW_PBE Se 06Sep2000                  
   VRHFIN =Se: s2p4                                                             
   LEXCH  = PE                                                                  
   EATOM  =   257.1286 eV,   18.8984 Ry                                         
                                                                                
   TITEL  = PAW_PBE Se 06Sep2000                                                
   LULTRA =        F    use ultrasoft PP ?                                      
   IUNSCR =        1    unscreen: 0-lin 1-nonlin 2-no                           
   RPACOR =    1.900    partial core radius                                     
   POMASS =   78.960; ZVAL   =    6.000    mass and valenz                      
   RCORE  =    2.100    outmost cutoff radius                                   
   RWIGS  =    2.200; RWIGS  =    1.164    wigner-seitz radius (au A)           
   ENMAX  =  211.555; ENMIN  =  158.666 eV                                      
   ICORE  =        3    local potential                                         
   LCOR   =        T    correct aug charges                                     
   LPAW   =        T    paw PP                                                  
   EAUG   =  446.842                                                            
   DEXC   =    0.000                                                            
   RMAX   =    2.147    core radius for proj-oper                               
   RAUG   =    1.300    factor for augmentation sphere                          
   RDEP   =    2.177    radius for radial grids                                 
   RDEPT  =    1.928    core radius for aug-charge                              
                                                                                
   Atomic configuration                                                         
   10 entries                                                                   
     n  l   j            E        occ.                                          
     1  0  0.50    -12503.4787   2.0000                                         
     2  0  0.50     -1606.9547   2.0000                                         
     2  1  1.50     -1413.3140   6.0000                                         
     3  0  0.50      -213.4885   2.0000                                         
     3  1  1.50      -152.9538   6.0000                                         
     3  2  2.50       -53.1221  10.0000                                         
     4  0  0.50       -17.2865   2.0000                                         
     4  1  0.50        -6.5110   4.0000                                         
     4  2  2.50        -6.8029   0.0000                                         
     4  3  2.50        -6.8029   0.0000                                         
   Description                                                                  
     l       E           TYP  RCUT    TYP  RCUT                                 
     0    -17.2865377     23  2.100                                             
     0    -15.3094411     23  2.100                                             
     1     -6.5110275     23  2.100                                             
     1     -0.0695192     23  2.100                                             
     2     -6.8029130     23  2.100                                             
     3     -1.3605826      7  2.100                                             
  local pseudopotential read in
  partial core-charges read in
  partial kinetic energy density read in
  atomic valenz-charges read in
  non local Contribution for L=           0  read in
    real space projection operators read in
  non local Contribution for L=           0  read in
    real space projection operators read in
  non local Contribution for L=           1  read in
    real space projection operators read in
  non local Contribution for L=           1  read in
    real space projection operators read in
  non local Contribution for L=           2  read in
    real space projection operators read in
    PAW grid and wavefunctions read in
 
   number of l-projection  operators is LMAX  =           5
   number of lm-projection operators is LMMAX =          13
 
 POTCAR:    PAW_PBE W 08Apr2002                   
   VRHFIN =W : 6s5d                                                             
   LEXCH  = PE                                                                  
   EATOM  =   204.6103 eV,   15.0384 Ry                                         
                                                                                
   TITEL  = PAW_PBE W 08Apr2002                                                 
   LULTRA =        F    use ultrasoft PP ?                                      
   IUNSCR =        1    unscreen: 0-lin 1-nonlin 2-no                           
   RPACOR =    2.330    partial core radius                                     
   POMASS =  183.850; ZVAL   =    6.000    mass and valenz                      
   RCORE  =    2.750    outmost cutoff radius                                   
   RWIGS  =    2.750; RWIGS  =    1.455    wigner-seitz radius (au A)           
   ENMAX  =  223.057; ENMIN  =  167.293 eV                                      
   RCLOC  =    2.147    cutoff for local pot                                    
   LCOR   =        T    correct aug charges                                     
   LPAW   =        T    paw PP                                                  
   EAUG   =  373.438                                                            
   DEXC   =    0.000                                                            
   RMAX   =    2.801    core radius for proj-oper                               
   RAUG   =    1.300    factor for augmentation sphere                          
   RDEP   =    2.886    radius for radial grids                                 
   RDEPT  =    2.230    core radius for aug-charge                              
                                                                                
   Atomic configuration                                                         
   16 entries                                                                   
     n  l   j            E        occ.                                          
     1  0  0.50    -69465.5836   2.0000                                         
     2  0  0.50    -11986.2642   2.0000                                         
     2  1  1.50    -10479.8616   6.0000                                         
     3  0  0.50     -2759.0758   2.0000                                         
     3  1  1.50     -2313.1857   6.0000                                         
     3  2  2.50     -1801.1185  10.0000                                         
     4  0  0.50      -567.6791   2.0000                                         
     4  1  1.50      -421.4694   6.0000                                         
     4  2  2.50      -236.3473  10.0000                                         
     4  3  3.50       -31.2666  14.0000                                         
     5  0  0.50       -77.1085   2.0000                                         
     5  1  1.50       -41.3856   6.0000                                         
     5  2  2.50        -3.3185   5.0000                                         
     6  0  0.50        -5.1438   1.0000                                         
     6  1  0.50        -3.8096   0.0000                                         
     5  3  2.50        -1.3606   0.0000                                         
   Description                                                                  
     l       E           TYP  RCUT    TYP  RCUT                                 
     2     -3.3185288     23  2.500                                             
     2     -1.5965414     23  2.500                                             
     0     -5.1438054     23  2.500                                             
     0      4.9117504     23  2.500                                             
     1      2.7211652     23  2.750                                             
     1     27.2116520     23  2.750                                             
  local pseudopotential read in
  partial core-charges read in
  partial kinetic energy density read in
  atomic valenz-charges read in
  non local Contribution for L=           2  read in
    real space projection operators read in
  non local Contribution for L=           2  read in
    real space projection operators read in
  non local Contribution for L=           0  read in
    real space projection operators read in
  non local Contribution for L=           0  read in
    real space projection operators read in
  non local Contribution for L=           1  read in
    real space projection operators read in
  non local Contribution for L=           1  read in
    real space projection operators read in
    PAW grid and wavefunctions read in
 
   number of l-projection  operators is LMAX  =           6
   number of lm-projection operators is LMMAX =          18
 
  PAW_PBE Mo 08Apr2002                  :
 energy of atom  1       EATOM= -217.5176
 kinetic energy error for atom=    0.0235 (will be added to EATOM!!)
  PAW_PBE S 06Sep2000                   :
 energy of atom  2       EATOM= -276.8230
 kinetic energy error for atom=    0.0263 (will be added to EATOM!!)
  PAW_PBE Se 06Sep2000                  :
 energy of atom  3       EATOM= -257.1286
 kinetic energy error for atom=    0.0051 (will be added to EATOM!!)
  PAW_PBE W 08Apr2002                   :
 energy of atom  4       EATOM= -204.6103
 kinetic energy error for atom=    0.0224 (will be added to EATOM!!)
 
 
 POSCAR: Mo  S Se  W                             
  positions in direct lattice
  No initial velocities read in
 exchange correlation table for  LEXCH =        8
   RHO(1)=    0.500       N(1)  =     2000
   RHO(2)=  100.500       N(2)  =     4000
 


--------------------------------------------------------------------------------------------------------


 ion  position               nearest neighbor table
   1  0.642  0.361  0.204-   4 2.31   4 2.31   4 2.31   3 2.32   3 2.32   3 2.32
   2  0.673  0.323  0.809-   8 2.41   8 2.41   8 2.41   7 2.41   7 2.41   7 2.41
   3  0.976  0.028  0.163-   1 2.32   1 2.32   1 2.32
   4  0.976  0.028  0.244-   1 2.31   1 2.31   1 2.31
   5  0.676  0.326  0.401-   9 2.35   9 2.35   9 2.35
   6  0.676  0.326  0.484-   9 2.35   9 2.35   9 2.35
   7  0.006  0.990  0.765-   2 2.41   2 2.41   2 2.41
   8  0.006  0.990  0.853-   2 2.41   2 2.41   2 2.41
   9  0.009  0.992  0.442-   6 2.35   6 2.35   6 2.35   5 2.35   5 2.35   5 2.35
 
  LATTYP: Found a hexagonal cell.
 ALAT       =     3.1850000770
 C/A-ratio  =    10.9890107232
  
  Lattice vectors:
  
 A1 = (   3.1850000000,   0.0000000000,   0.0000000000)
 A2 = (  -1.5925000000,   2.7582910000,   0.0000000000)
 A3 = (   0.0000000000,   0.0000000000,  35.0000000000)


Analysis of symmetry for initial positions (statically):
=====================================================================
 Subroutine PRICEL returns:
 Original cell was already a primitive cell.
 

 Routine SETGRP: Setting up the symmetry group for a 
 hexagonal supercell.


 Subroutine GETGRP returns: Found  1 space group operations
 (whereof  1 operations were pure point group operations)
 out of a pool of 24 trial point group operations.


The static configuration has the point symmetry C_1 .


Analysis of symmetry for dynamics (positions and initial velocities):
=====================================================================
 Subroutine PRICEL returns:
 Original cell was already a primitive cell.
 

 Routine SETGRP: Setting up the symmetry group for a 
 hexagonal supercell.


 Subroutine GETGRP returns: Found  1 space group operations
 (whereof  1 operations were pure point group operations)
 out of a pool of 24 trial point group operations.


The dynamic configuration has the point symmetry C_1 .
 
 
 KPOINTS: K-mesh                                  

Automatic generation of k-mesh.
Space group operators:
 irot       det(A)        alpha          n_x          n_y          n_z        tau_x        tau_y        tau_z
    1     1.000000     0.000001     1.000000     0.000000     0.000000     0.000000     0.000000     0.000000
 
 Subroutine IBZKPT returns following result:
 ===========================================
 
 Found      1 irreducible k-points:
 
 Following reciprocal coordinates:
            Coordinates               Weight
  0.000000  0.000000  0.000000      1.000000
 
 Following cartesian coordinates:
            Coordinates               Weight
  0.000000  0.000000  0.000000      1.000000
 


--------------------------------------------------------------------------------------------------------




 Dimension of arrays:
   k-points           NKPTS =      1   k-points in BZ     NKDIM =      1   number of bands    NBANDS=    388
   number of dos      NEDOS =    301   number of ions     NIONS =      9
   non local maximal  LDIM  =      6   non local SUM 2l+1 LMDIM =     18
   total plane-waves  NPLWV =  62208
   max r-space proj   IRMAX =      1   max aug-charges    IRDMAX=  13187
   dimension x,y,z NGX =    18 NGY =   18 NGZ =  192
   dimension x,y,z NGXF=    36 NGYF=   36 NGZF=  384
   support grid    NGXF=    36 NGYF=   36 NGZF=  384
   ions per type =               2   4   2   1
 NGX,Y,Z   is equivalent  to a cutoff of   9.40,  9.40,  9.12 a.u.
 NGXF,Y,Z  is equivalent  to a cutoff of  18.79, 18.79, 18.24 a.u.


 I would recommend the setting:
   dimension x,y,z NGX =    17 NGY =   17 NGZ =  184
 SYSTEM =  unknown system                          
 POSCAR =  Mo  S Se  W                             

 Startparameter for this run:
   NWRITE =      2    write-flag & timer
   PREC   = accura    normal or accurate (medium, high low for compatibility)
   ISTART =      0    job   : 0-new  1-cont  2-samecut
   ICHARG =      2    charge: 1-file 2-atom 10-const
   ISPIN  =      1    spin polarized calculation?
   LNONCOLLINEAR =      F non collinear calculations
   LSORBIT =      F    spin-orbit coupling
   INIWAV =      1    electr: 0-lowe 1-rand  2-diag
   LASPH  =      F    aspherical Exc in radial PAW
   METAGGA=      F    non-selfconsistent MetaGGA calc.

 Electronic Relaxation 1
   ENCUT  =  258.7 eV  19.01 Ry    4.36 a.u.   4.18  4.18 45.90*2*pi/ulx,y,z
   ENINI  =  258.7     initial cutoff
   ENAUG  =  446.8 eV  augmentation charge cutoff
   NELM   =    120;   NELMIN=  2; NELMDL= -5     # of ELM steps 
   EDIFF  = 0.1E-05   stopping-criterion for ELM
   LREAL  =      F    real-space projection
   NLSPLINE    = F    spline interpolate recip. space projectors
   LCOMPAT=      F    compatible to vasp.4.4
   GGA_COMPAT  = T    GGA compatible to vasp.4.4-vasp.4.6
   LMAXPAW     = -100 max onsite density
   LMAXMIX     =    2 max onsite mixed and CHGCAR
   VOSKOWN=      0    Vosko Wilk Nusair interpolation
   ROPT   =    0.00000   0.00000   0.00000   0.00000
 Ionic relaxation
   EDIFFG = 0.1E-04   stopping-criterion for IOM
   NSW    =      0    number of steps for IOM
   NBLOCK =      1;   KBLOCK =      1    inner block; outer block 
   IBRION =     -1    ionic relax: 0-MD 1-quasi-New 2-CG
   NFREE  =      0    steps in history (QN), initial steepest desc. (CG)
   ISIF   =      2    stress and relaxation
   IWAVPR =     10    prediction:  0-non 1-charg 2-wave 3-comb
   ISYM   =      2    0-nonsym 1-usesym 2-fastsym
   LCORR  =      T    Harris-Foulkes like correction to forces

   POTIM  = 0.5000    time-step for ionic-motion
   TEIN   =    0.0    initial temperature
   TEBEG  =    0.0;   TEEND  =   0.0 temperature during run
   SMASS  =  -3.00    Nose mass-parameter (am)
   estimated Nose-frequenzy (Omega)   =  0.10E-29 period in steps =****** mass=  -0.232E-27a.u.
   SCALEE = 1.0000    scale energy and forces
   NPACO  =    256;   APACO  = 16.0  distance and # of slots for P.C.
   PSTRESS=    0.0 pullay stress

  Mass of Ions in am
   POMASS =  95.94 32.07 78.96183.85
  Ionic Valenz
   ZVAL   =   6.00  6.00  6.00  6.00
  Atomic Wigner-Seitz radii
   RWIGS  =  -1.00 -1.00 -1.00 -1.00
  virtual crystal weights 
   VCA    =   1.00  1.00  1.00  1.00
   NELECT =      54.0000    total number of electrons
   NUPDOWN=      -1.0000    fix difference up-down

 DOS related values:
   EMIN   =  10.00;   EMAX   =-10.00  energy-range for DOS
   EFERMI =   0.00
   ISMEAR =     1;   SIGMA  =   0.20  broadening in eV -4-tet -1-fermi 0-gaus

 Electronic relaxation 2 (details)
   IALGO  =     38    algorithm
   LDIAG  =      T    sub-space diagonalisation (order eigenvalues)
   LSUBROT=      F    optimize rotation matrix (better conditioning)
   TURBO    =      0    0=normal 1=particle mesh
   IRESTART =      0    0=no restart 2=restart with 2 vectors
   NREBOOT  =      0    no. of reboots
   NMIN     =      0    reboot dimension
   EREF     =   0.00    reference energy to select bands
   IMIX   =      4    mixing-type and parameters
     AMIX     =   0.40;   BMIX     =  1.00
     AMIX_MAG =   1.60;   BMIX_MAG =  1.00
     AMIN     =   0.10
     WC   =   100.;   INIMIX=   1;  MIXPRE=   1;  MAXMIX= -45

 Intra band minimization:
   WEIMIN = 0.0000     energy-eigenvalue tresh-hold
   EBREAK =  0.64E-09  absolut break condition
   DEPER  =   0.30     relativ break condition  

   TIME   =   0.40     timestep for ELM

  volume/ion in A,a.u.               =      34.16       230.55
  Fermi-wavevector in a.u.,A,eV,Ry     =   0.916784  1.732470 11.435593  0.840492
  Thomas-Fermi vector in A             =   2.041678
 
 Write flags
   LWAVE  =      T    write WAVECAR
   LCHARG =      T    write CHGCAR
   LVTOT  =      F    write LOCPOT, total local potential
   LVHAR  =      F    write LOCPOT, Hartree potential only
   LELF   =      F    write electronic localiz. function (ELF)
   LORBIT =     11    0 simple, 1 ext, 2 COOP (PROOUT)


 Dipole corrections
   LMONO  =      F    monopole corrections only (constant potential shift)
   LDIPOL =      F    correct potential (dipole corrections)
   IDIPOL =      0    1-x, 2-y, 3-z, 4-all directions 
   EPSILON=  1.0000000 bulk dielectric constant

 Exchange correlation treatment:
   GGA     =    --    GGA type
   LEXCH   =     8    internal setting for exchange type
   VOSKOWN=      0    Vosko Wilk Nusair interpolation
   LHFCALC =     F    Hartree Fock is set to
   LHFONE  =     F    Hartree Fock one center treatment
   AEXX    =    0.0000 exact exchange contribution

 Linear response parameters
   LEPSILON=     F    determine dielectric tensor
   LRPA    =     F    only Hartree local field effects (RPA)
   LNABLA  =     F    use nabla operator in PAW spheres
   LVEL    =     F    velocity operator in full k-point grid
   LINTERFAST=   F  fast interpolation
   KINTER  =     0    interpolate to denser k-point grid
   CSHIFT  =0.1000    complex shift for real part using Kramers Kronig
   OMEGAMAX=  -1.0    maximum frequency
   DEG_THRESHOLD= 0.2000000E-02 threshold for treating states as degnerate
   RTIME   =    0.100 relaxation time in fs

 Orbital magnetization related:
   ORBITALMAG=     F  switch on orbital magnetization
   LCHIMAG   =     F  perturbation theory with respect to B field
   DQ        =  0.001000  dq finite difference perturbation B field



--------------------------------------------------------------------------------------------------------


 Static calculation
 charge density and potential will be updated during run
 non-spin polarized calculation
 Variant of blocked Davidson
 Davidson routine will perform the subspace rotation
 perform sub-space diagonalisation
    after iterative eigenvector-optimisation
 modified Broyden-mixing scheme, WC =      100.0
 initial mixing is a Kerker type mixing with AMIX =  0.4000 and BMIX =      1.0000
 Hartree-type preconditioning will be used
 using additional bands          361
 reciprocal scheme for non local part
 use partial core corrections
 calculate Harris-corrections to forces 
   (improved forces if not selfconsistent)
 use gradient corrections 
 use of overlap-Matrix (Vanderbilt PP)
 Methfessel and Paxton  Order N= 1 SIGMA  =   0.20


--------------------------------------------------------------------------------------------------------


  energy-cutoff  :      258.69
  volume of cell :      307.48
      direct lattice vectors                 reciprocal lattice vectors
     3.185000000  0.000000000  0.000000000     0.313971743  0.181271664  0.000000000
    -1.592500000  2.758291000  0.000000000     0.000000000  0.362543328  0.000000000
     0.000000000  0.000000000 35.000000000     0.000000000  0.000000000  0.028571429

  length of vectors
     3.185000000  3.185000077 35.000000000     0.362543337  0.362543328  0.028571429


 
 k-points in units of 2pi/SCALE and weight: K-mesh                                  
   0.00000000  0.00000000  0.00000000       1.000
 
 k-points in reciprocal lattice and weights: K-mesh                                  
   0.00000000  0.00000000  0.00000000       1.000
 
 position of ions in fractional coordinates (direct lattice) 
   0.64217973  0.36110163  0.20381795
   0.67295760  0.32335296  0.80905281
   0.97550397  0.02776841  0.16347535
   0.97551172  0.02778320  0.24395995
   0.67602776  0.32562660  0.40051633
   0.67604990  0.32560907  0.48392908
   0.00629245  0.99002344  0.76452782
   0.00629335  0.99001344  0.85344193
   0.00936429  0.99229376  0.44227026
 
 position of ions in cartesian coordinates  (Angst):
   1.47028809  0.99602338  7.13362825
   1.62843037  0.89190156 28.31684835
   3.06275895  0.07659336  5.72163725
   3.06276008  0.07663415  8.53859825
   1.63458806  0.89817292 14.01807155
   1.63468649  0.89812457 16.93751780
  -1.55657087  2.73077274 26.75847370
  -1.55655208  2.73074516 29.87046755
  -1.55040255  2.73703495 15.47945910
 


--------------------------------------------------------------------------------------------------------


 k-point  1 :   0.0000 0.0000 0.0000  plane waves:    2881

 maximum and minimum number of plane-waves per node :      2881     2881

 maximum number of plane-waves:      2881
 maximum index in each direction: 
   IXMAX=    4   IYMAX=    4   IZMAX=   45
   IXMIN=   -4   IYMIN=   -4   IZMIN=  -45

 NGX is ok and might be reduce to  18
 NGY is ok and might be reduce to  18
 NGZ is ok and might be reduce to 182

 serial   3D FFT for wavefunctions
 parallel 3D FFT for charge:
    minimum data exchange during FFTs selected (reduces bandwidth)


 total amount of memory used by VASP on root node   106275. kBytes
========================================================================

   base      :      30000. kBytes
   nonl-proj :       2074. kBytes
   fftplans  :      17012. kBytes
   grid      :      38470. kBytes
   one-center:        139. kBytes
   wavefun   :      18580. kBytes
 
     INWAV:  cpu time    0.0000: real time    0.0000
 Broyden mixing: mesh for mixing (old mesh)
   NGX =  9   NGY =  9   NGZ = 91
  (NGX  = 36   NGY  = 36   NGZ  =384)
  gives a total of   7371 points

 initial charge density was supplied:
 charge density of overlapping atoms calculated
 number of electron      54.0000000 magnetization 
 keeping initial charge density in first step


--------------------------------------------------------------------------------------------------------


 Maximum index for augmentation-charges        12604 (set IRDMAX)


--------------------------------------------------------------------------------------------------------


 First call to EWALD:  gamma=   0.263
 Maximum number of real-space cells 6x 6x 1
 Maximum number of reciprocal cells 2x 2x12

 FEWALD executed in parallel
    FEWALD:  cpu time    0.0455: real time    0.0023


----------------------------------------- Iteration    1(   1)  ---------------------------------------


    POTLOK:  cpu time    4.7305: real time    0.2369
    SETDIJ:  cpu time    0.3928: real time    0.0196
     EDDAV:  cpu time   87.6182: real time    4.3948
       DOS:  cpu time    0.0244: real time    0.0012
    --------------------------------------------
      LOOP:  cpu time   92.7859: real time    4.6535

 eigenvalue-minimisations  :   784
 total energy-change (2. order) : 0.2346996E+03  (-0.5648552E+03)
 number of electron      54.0000000 magnetization 
 augmentation part       54.0000000 magnetization 

 Free energy of the ion-electron system (eV)
  ---------------------------------------------------
  alpha Z        PSCENC =        99.60307510
  Ewald energy   TEWEN  =      2862.10097504
  -Hartree energ DENC   =     -5091.03038932
  -exchange      EXHF   =         0.00000000
  -V(xc)+E(xc)   XCENC  =      -119.41640827
  PAW double counting   =      2063.56787816    -1821.78880493
  entropy T*S    EENTRO =         0.02548565
  eigenvalues    EBANDS =       -19.37224899
  atomic energy  EATOM  =      2261.01001458
  Solvation  Ediel_sol  =         0.00000000
  ---------------------------------------------------
  free energy    TOTEN  =       234.69957702 eV

  energy without entropy =      234.67409137  energy(sigma->0) =      234.69108180


--------------------------------------------------------------------------------------------------------




----------------------------------------- Iteration    1(   2)  ---------------------------------------


     EDDAV:  cpu time   98.6256: real time    4.9456
       DOS:  cpu time    0.0234: real time    0.0012
    --------------------------------------------
      LOOP:  cpu time   98.6631: real time    4.9475

 eigenvalue-minimisations  :   944
 total energy-change (2. order) :-0.2701278E+03  (-0.2378175E+03)
 number of electron      54.0000000 magnetization 
 augmentation part       54.0000000 magnetization 

 Free energy of the ion-electron system (eV)
  ---------------------------------------------------
  alpha Z        PSCENC =        99.60307510
  Ewald energy   TEWEN  =      2862.10097504
  -Hartree energ DENC   =     -5091.03038932
  -exchange      EXHF   =         0.00000000
  -V(xc)+E(xc)   XCENC  =      -119.41640827
  PAW double counting   =      2063.56787816    -1821.78880493
  entropy T*S    EENTRO =         0.02469622
  eigenvalues    EBANDS =      -289.49921923
  atomic energy  EATOM  =      2261.01001458
  Solvation  Ediel_sol  =         0.00000000
  ---------------------------------------------------
  free energy    TOTEN  =       -35.42818266 eV

  energy without entropy =      -35.45287888  energy(sigma->0) =      -35.43641473


--------------------------------------------------------------------------------------------------------




----------------------------------------- Iteration    1(   3)  ---------------------------------------


     EDDAV:  cpu time   97.2089: real time    4.8759
       DOS:  cpu time    0.0237: real time    0.0012
    --------------------------------------------
      LOOP:  cpu time   97.2426: real time    4.8776

 eigenvalue-minimisations  :   912
 total energy-change (2. order) :-0.1111493E+02  (-0.1093417E+02)
 number of electron      54.0000000 magnetization 
 augmentation part       54.0000000 magnetization 

 Free energy of the ion-electron system (eV)
  ---------------------------------------------------
  alpha Z        PSCENC =        99.60307510
  Ewald energy   TEWEN  =      2862.10097504
  -Hartree energ DENC   =     -5091.03038932
  -exchange      EXHF   =         0.00000000
  -V(xc)+E(xc)   XCENC  =      -119.41640827
  PAW double counting   =      2063.56787816    -1821.78880493
  entropy T*S    EENTRO =         0.02502730
  eigenvalues    EBANDS =      -300.61447546
  atomic energy  EATOM  =      2261.01001458
  Solvation  Ediel_sol  =         0.00000000
  ---------------------------------------------------
  free energy    TOTEN  =       -46.54310781 eV

  energy without entropy =      -46.56813511  energy(sigma->0) =      -46.55145024


--------------------------------------------------------------------------------------------------------




----------------------------------------- Iteration    1(   4)  ---------------------------------------


     EDDAV:  cpu time   96.8728: real time    4.8578
       DOS:  cpu time    0.0237: real time    0.0012
    --------------------------------------------
      LOOP:  cpu time   96.9069: real time    4.8595

 eigenvalue-minimisations  :   912
 total energy-change (2. order) :-0.2490372E-01  (-0.2489931E-01)
 number of electron      54.0000000 magnetization 
 augmentation part       54.0000000 magnetization 

 Free energy of the ion-electron system (eV)
  ---------------------------------------------------
  alpha Z        PSCENC =        99.60307510
  Ewald energy   TEWEN  =      2862.10097504
  -Hartree energ DENC   =     -5091.03038932
  -exchange      EXHF   =         0.00000000
  -V(xc)+E(xc)   XCENC  =      -119.41640827
  PAW double counting   =      2063.56787816    -1821.78880493
  entropy T*S    EENTRO =         0.02502353
  eigenvalues    EBANDS =      -300.63937540
  atomic energy  EATOM  =      2261.01001458
  Solvation  Ediel_sol  =         0.00000000
  ---------------------------------------------------
  free energy    TOTEN  =       -46.56801152 eV

  energy without entropy =      -46.59303505  energy(sigma->0) =      -46.57635270


--------------------------------------------------------------------------------------------------------




----------------------------------------- Iteration    1(   5)  ---------------------------------------


     EDDAV:  cpu time   94.1209: real time    4.7193
       DOS:  cpu time    0.0229: real time    0.0012
    CHARGE:  cpu time    2.0203: real time    0.1011
    MIXING:  cpu time    0.1230: real time    0.0062
    --------------------------------------------
      LOOP:  cpu time   96.2989: real time    4.8283

 eigenvalue-minimisations  :   880
 total energy-change (2. order) :-0.5030841E-04  (-0.5030809E-04)
 number of electron      54.0000005 magnetization 
 augmentation part       -1.5863024 magnetization 

 Broyden mixing:
  rms(total) = 0.45611E+01    rms(broyden)= 0.45608E+01
  rms(prec ) = 0.45759E+01
  weight for this iteration     100.00

 Free energy of the ion-electron system (eV)
  ---------------------------------------------------
  alpha Z        PSCENC =        99.60307510
  Ewald energy   TEWEN  =      2862.10097504
  -Hartree energ DENC   =     -5091.03038932
  -exchange      EXHF   =         0.00000000
  -V(xc)+E(xc)   XCENC  =      -119.41640827
  PAW double counting   =      2063.56787816    -1821.78880493
  entropy T*S    EENTRO =         0.02502352
  eigenvalues    EBANDS =      -300.63942570
  atomic energy  EATOM  =      2261.01001458
  Solvation  Ediel_sol  =         0.00000000
  ---------------------------------------------------
  free energy    TOTEN  =       -46.56806183 eV

  energy without entropy =      -46.59308535  energy(sigma->0) =      -46.57640301


--------------------------------------------------------------------------------------------------------




----------------------------------------- Iteration    1(   6)  ---------------------------------------


    POTLOK:  cpu time    3.2355: real time    0.2173
    SETDIJ:  cpu time    0.0170: real time    0.0170
     EDDAV:  cpu time   92.6469: real time    4.6584
       DOS:  cpu time    0.0231: real time    0.0012
    CHARGE:  cpu time    1.7188: real time    0.0860
    MIXING:  cpu time    0.1305: real time    0.0065
    --------------------------------------------
      LOOP:  cpu time   97.7832: real time    4.9870

 eigenvalue-minimisations  :   872
 total energy-change (2. order) : 0.3182891E+01  (-0.4505078E-01)
 number of electron      54.0000006 magnetization 
 augmentation part       -2.5344791 magnetization 

 Broyden mixing:
  rms(total) = 0.30260E+01    rms(broyden)= 0.30259E+01
  rms(prec ) = 0.30371E+01
  weight for this iteration     100.00

 eigenvalues of (default mixing * dielectric matrix)
  average eigenvalue GAMMA=   1.8132
  1.8132

 Free energy of the ion-electron system (eV)
  ---------------------------------------------------
  alpha Z        PSCENC =        99.60307510
  Ewald energy   TEWEN  =      2862.10097504
  -Hartree energ DENC   =     -5111.70310030
  -exchange      EXHF   =         0.00000000
  -V(xc)+E(xc)   XCENC  =      -118.69804322
  PAW double counting   =      3241.45336702    -3001.43738814
  entropy T*S    EENTRO =         0.01468165
  eigenvalues    EBANDS =      -275.72875290
  atomic energy  EATOM  =      2261.01001458
  Solvation  Ediel_sol  =         0.00000000
  ---------------------------------------------------
  free energy    TOTEN  =       -43.38517117 eV

  energy without entropy =      -43.39985282  energy(sigma->0) =      -43.39006505


--------------------------------------------------------------------------------------------------------




----------------------------------------- Iteration    1(   7)  ---------------------------------------


    POTLOK:  cpu time    3.4917: real time    0.2035
    SETDIJ:  cpu time    0.0169: real time    0.0169
     EDDAV:  cpu time   93.8135: real time    4.7164
       DOS:  cpu time    0.0233: real time    0.0012
    CHARGE:  cpu time    1.9636: real time    0.0983
    MIXING:  cpu time    0.1329: real time    0.0067
    --------------------------------------------
      LOOP:  cpu time   99.4532: real time    5.0434

 eigenvalue-minimisations  :   888
 total energy-change (2. order) :-0.3467444E+01  (-0.3563389E-01)
 number of electron      54.0000004 magnetization 
 augmentation part       -0.7475928 magnetization 

 Broyden mixing:
  rms(total) = 0.17800E+01    rms(broyden)= 0.17799E+01
  rms(prec ) = 0.18503E+01
  weight for this iteration     100.00

 eigenvalues of (default mixing * dielectric matrix)
  average eigenvalue GAMMA=   1.3358
  2.1664  0.5051

 Free energy of the ion-electron system (eV)
  ---------------------------------------------------
  alpha Z        PSCENC =        99.60307510
  Ewald energy   TEWEN  =      2862.10097504
  -Hartree energ DENC   =     -5100.44305716
  -exchange      EXHF   =         0.00000000
  -V(xc)+E(xc)   XCENC  =      -116.26548333
  PAW double counting   =      4855.69968461    -4618.07089041
  entropy T*S    EENTRO =         0.02559049
  eigenvalues    EBANDS =      -290.51252415
  atomic energy  EATOM  =      2261.01001458
  Solvation  Ediel_sol  =         0.00000000
  ---------------------------------------------------
  free energy    TOTEN  =       -46.85261523 eV

  energy without entropy =      -46.87820572  energy(sigma->0) =      -46.86114539


--------------------------------------------------------------------------------------------------------




----------------------------------------- Iteration    1(   8)  ---------------------------------------


    POTLOK:  cpu time    2.6959: real time    0.2026
    SETDIJ:  cpu time    0.0169: real time    0.0169
     EDDAV:  cpu time   92.7918: real time    4.6703
       DOS:  cpu time    0.0231: real time    0.0012
    CHARGE:  cpu time    1.8271: real time    0.0916
    MIXING:  cpu time    0.1434: real time    0.0072
    --------------------------------------------
      LOOP:  cpu time   97.5091: real time    4.9904

 eigenvalue-minimisations  :   856
 total energy-change (2. order) : 0.4895989E+01  (-0.4839230E-01)
 number of electron      54.0000005 magnetization 
 augmentation part       -1.9450126 magnetization 

 Broyden mixing:
  rms(total) = 0.26965E+00    rms(broyden)= 0.26927E+00
  rms(prec ) = 0.27160E+00
  weight for this iteration     100.00

 eigenvalues of (default mixing * dielectric matrix)
  average eigenvalue GAMMA=   1.3541
  2.3967  1.1448  0.5206

 Free energy of the ion-electron system (eV)
  ---------------------------------------------------
  alpha Z        PSCENC =        99.60307510
  Ewald energy   TEWEN  =      2862.10097504
  -Hartree energ DENC   =     -5108.07684568
  -exchange      EXHF   =         0.00000000
  -V(xc)+E(xc)   XCENC  =      -116.56066397
  PAW double counting   =      5469.21944134    -5232.02424174
  entropy T*S    EENTRO =         0.01177517
  eigenvalues    EBANDS =      -277.24015562
  atomic energy  EATOM  =      2261.01001458
  Solvation  Ediel_sol  =         0.00000000
  ---------------------------------------------------
  free energy    TOTEN  =       -41.95662578 eV

  energy without entropy =      -41.96840095  energy(sigma->0) =      -41.96055084


--------------------------------------------------------------------------------------------------------




----------------------------------------- Iteration    1(   9)  ---------------------------------------


    POTLOK:  cpu time    2.9000: real time    0.1972
    SETDIJ:  cpu time    0.0169: real time    0.0169
     EDDAV:  cpu time   94.2530: real time    4.7382
       DOS:  cpu time    0.0237: real time    0.0012
    CHARGE:  cpu time    1.8970: real time    0.0951
    MIXING:  cpu time    0.1420: real time    0.0071
    --------------------------------------------
      LOOP:  cpu time   99.2443: real time    5.0563

 eigenvalue-minimisations  :   888
 total energy-change (2. order) : 0.6575888E-02  (-0.8327198E-02)
 number of electron      54.0000005 magnetization 
 augmentation part       -1.9288278 magnetization 

 Broyden mixing:
  rms(total) = 0.16130E+00    rms(broyden)= 0.16128E+00
  rms(prec ) = 0.16376E+00
  weight for this iteration     100.00

 eigenvalues of (default mixing * dielectric matrix)
  average eigenvalue GAMMA=   1.3385
  2.4732  0.5035  1.1887  1.1887

 Free energy of the ion-electron system (eV)
  ---------------------------------------------------
  alpha Z        PSCENC =        99.60307510
  Ewald energy   TEWEN  =      2862.10097504
  -Hartree energ DENC   =     -5102.39226242
  -exchange      EXHF   =         0.00000000
  -V(xc)+E(xc)   XCENC  =      -116.39389780
  PAW double counting   =      5786.76866050    -5549.83266049
  entropy T*S    EENTRO =         0.01695743
  eigenvalues    EBANDS =      -282.83091183
  atomic energy  EATOM  =      2261.01001458
  Solvation  Ediel_sol  =         0.00000000
  ---------------------------------------------------
  free energy    TOTEN  =       -41.95004989 eV

  energy without entropy =      -41.96700732  energy(sigma->0) =      -41.95570237


--------------------------------------------------------------------------------------------------------




----------------------------------------- Iteration    1(  10)  ---------------------------------------


    POTLOK:  cpu time    4.1141: real time    0.2066
    SETDIJ:  cpu time    0.3833: real time    0.0194
     EDDAV:  cpu time   96.2974: real time    4.8276
       DOS:  cpu time    0.0255: real time    0.0013
    CHARGE:  cpu time    1.9083: real time    0.0958
    MIXING:  cpu time    0.1451: real time    0.0073
    --------------------------------------------
      LOOP:  cpu time  102.8859: real time    5.1585

 eigenvalue-minimisations  :   912
 total energy-change (2. order) : 0.1227189E-01  (-0.2016374E-02)
 number of electron      54.0000005 magnetization 
 augmentation part       -1.9277817 magnetization 

 Broyden mixing:
  rms(total) = 0.98707E-01    rms(broyden)= 0.98679E-01
  rms(prec ) = 0.10254E+00
  weight for this iteration     100.00

 eigenvalues of (default mixing * dielectric matrix)
  average eigenvalue GAMMA=   1.3438
  2.3569  1.6930  0.5104  1.3040  0.8549

 Free energy of the ion-electron system (eV)
  ---------------------------------------------------
  alpha Z        PSCENC =        99.60307510
  Ewald energy   TEWEN  =      2862.10097504
  -Hartree energ DENC   =     -5099.86779837
  -exchange      EXHF   =         0.00000000
  -V(xc)+E(xc)   XCENC  =      -116.35500404
  PAW double counting   =      5850.57839823    -5613.68939171
  entropy T*S    EENTRO =         0.02600722
  eigenvalues    EBANDS =      -285.34405405
  atomic energy  EATOM  =      2261.01001458
  Solvation  Ediel_sol  =         0.00000000
  ---------------------------------------------------
  free energy    TOTEN  =       -41.93777801 eV

  energy without entropy =      -41.96378523  energy(sigma->0) =      -41.94644708


--------------------------------------------------------------------------------------------------------




----------------------------------------- Iteration    1(  11)  ---------------------------------------


    POTLOK:  cpu time    2.6788: real time    0.1981
    SETDIJ:  cpu time    0.0171: real time    0.0171
     EDDAV:  cpu time   95.4580: real time    4.8036
       DOS:  cpu time    0.0225: real time    0.0011
    CHARGE:  cpu time    1.7514: real time    0.0879
    MIXING:  cpu time    0.1505: real time    0.0075
    --------------------------------------------
      LOOP:  cpu time  100.0896: real time    5.1159

 eigenvalue-minimisations  :   896
 total energy-change (2. order) :-0.9063367E-02  (-0.3008989E-01)
 number of electron      54.0000006 magnetization 
 augmentation part       -1.9698898 magnetization 

 Broyden mixing:
  rms(total) = 0.54610E-01    rms(broyden)= 0.54592E-01
  rms(prec ) = 0.58400E-01
  weight for this iteration     100.00

 eigenvalues of (default mixing * dielectric matrix)
  average eigenvalue GAMMA=   1.2146
  2.3559  1.5860  1.5860  0.8420  0.5119  0.4055

 Free energy of the ion-electron system (eV)
  ---------------------------------------------------
  alpha Z        PSCENC =        99.60307510
  Ewald energy   TEWEN  =      2862.10097504
  -Hartree energ DENC   =     -5097.65390335
  -exchange      EXHF   =         0.00000000
  -V(xc)+E(xc)   XCENC  =      -116.38982292
  PAW double counting   =      5848.40792666    -5611.50988363
  entropy T*S    EENTRO =         0.01231783
  eigenvalues    EBANDS =      -287.52754068
  atomic energy  EATOM  =      2261.01001458
  Solvation  Ediel_sol  =         0.00000000
  ---------------------------------------------------
  free energy    TOTEN  =       -41.94684137 eV

  energy without entropy =      -41.95915920  energy(sigma->0) =      -41.95094732


--------------------------------------------------------------------------------------------------------




----------------------------------------- Iteration    1(  12)  ---------------------------------------


    POTLOK:  cpu time    4.2801: real time    0.2142
    SETDIJ:  cpu time    0.0597: real time    0.0169
     EDDAV:  cpu time   94.4828: real time    4.7557
       DOS:  cpu time    0.0232: real time    0.0012
    CHARGE:  cpu time    1.8860: real time    0.0946
    MIXING:  cpu time    0.1549: real time    0.0078
    --------------------------------------------
      LOOP:  cpu time  100.8976: real time    5.0909

 eigenvalue-minimisations  :   880
 total energy-change (2. order) : 0.4326194E-02  (-0.3689829E-04)
 number of electron      54.0000005 magnetization 
 augmentation part       -1.9683850 magnetization 

 Broyden mixing:
  rms(total) = 0.24870E-01    rms(broyden)= 0.24860E-01
  rms(prec ) = 0.27618E-01
  weight for this iteration     100.00

 eigenvalues of (default mixing * dielectric matrix)
  average eigenvalue GAMMA=   1.2444
  2.2970  2.2970  1.4581  1.0014  0.5096  0.5739  0.5739

 Free energy of the ion-electron system (eV)
  ---------------------------------------------------
  alpha Z        PSCENC =        99.60307510
  Ewald energy   TEWEN  =      2862.10097504
  -Hartree energ DENC   =     -5097.01161139
  -exchange      EXHF   =         0.00000000
  -V(xc)+E(xc)   XCENC  =      -116.38721547
  PAW double counting   =      5850.45408474    -5613.55962567
  entropy T*S    EENTRO =         0.01468058
  eigenvalues    EBANDS =      -288.16689269
  atomic energy  EATOM  =      2261.01001458
  Solvation  Ediel_sol  =         0.00000000
  ---------------------------------------------------
  free energy    TOTEN  =       -41.94251518 eV

  energy without entropy =      -41.95719576  energy(sigma->0) =      -41.94740871


--------------------------------------------------------------------------------------------------------




----------------------------------------- Iteration    1(  13)  ---------------------------------------


    POTLOK:  cpu time    2.6044: real time    0.1983
    SETDIJ:  cpu time    0.0167: real time    0.0167
     EDDAV:  cpu time   94.8668: real time    4.7711
       DOS:  cpu time    0.0236: real time    0.0012
    CHARGE:  cpu time    1.9089: real time    0.0955
    MIXING:  cpu time    0.1861: real time    0.0093
    --------------------------------------------
      LOOP:  cpu time   99.6176: real time    5.0926

 eigenvalue-minimisations  :   896
 total energy-change (2. order) : 0.2842099E-02  (-0.5523798E-04)
 number of electron      54.0000005 magnetization 
 augmentation part       -1.9762050 magnetization 

 Broyden mixing:
  rms(total) = 0.23564E-01    rms(broyden)= 0.23516E-01
  rms(prec ) = 0.36252E-01
  weight for this iteration     100.00

 eigenvalues of (default mixing * dielectric matrix)
  average eigenvalue GAMMA=   1.1182
  2.2968  2.2968  1.4375  0.9999  0.5095  0.5694  0.5694  0.2661

 Free energy of the ion-electron system (eV)
  ---------------------------------------------------
  alpha Z        PSCENC =        99.60307510
  Ewald energy   TEWEN  =      2862.10097504
  -Hartree energ DENC   =     -5095.54198934
  -exchange      EXHF   =         0.00000000
  -V(xc)+E(xc)   XCENC  =      -116.39196427
  PAW double counting   =      5859.02549657    -5622.13855039
  entropy T*S    EENTRO =         0.02409824
  eigenvalues    EBANDS =      -289.63082861
  atomic energy  EATOM  =      2261.01001458
  Solvation  Ediel_sol  =         0.00000000
  ---------------------------------------------------
  free energy    TOTEN  =       -41.93967308 eV

  energy without entropy =      -41.96377132  energy(sigma->0) =      -41.94770583


--------------------------------------------------------------------------------------------------------




----------------------------------------- Iteration    1(  14)  ---------------------------------------


    POTLOK:  cpu time    4.2211: real time    0.2115
    SETDIJ:  cpu time    0.3882: real time    0.0194
     EDDAV:  cpu time   92.8038: real time    4.6636
       DOS:  cpu time    0.0231: real time    0.0012
    CHARGE:  cpu time    1.9360: real time    0.0970
    MIXING:  cpu time    0.1888: real time    0.0095
    --------------------------------------------
      LOOP:  cpu time   99.5735: real time    5.0028

 eigenvalue-minimisations  :   864
 total energy-change (2. order) :-0.1888372E-03  (-0.6070978E-05)
 number of electron      54.0000005 magnetization 
 augmentation part       -1.9760691 magnetization 

 Broyden mixing:
  rms(total) = 0.22173E-01    rms(broyden)= 0.22173E-01
  rms(prec ) = 0.34386E-01
  weight for this iteration     100.00

 eigenvalues of (default mixing * dielectric matrix)
  average eigenvalue GAMMA=   1.0057
  2.2946  2.2946  1.4369  0.9919  0.5096  0.5865  0.5865  0.3180  0.0327

 Free energy of the ion-electron system (eV)
  ---------------------------------------------------
  alpha Z        PSCENC =        99.60307510
  Ewald energy   TEWEN  =      2862.10097504
  -Hartree energ DENC   =     -5095.55456886
  -exchange      EXHF   =         0.00000000
  -V(xc)+E(xc)   XCENC  =      -116.39184014
  PAW double counting   =      5858.96723251    -5622.08025592
  entropy T*S    EENTRO =         0.02342350
  eigenvalues    EBANDS =      -289.61791773
  atomic energy  EATOM  =      2261.01001458
  Solvation  Ediel_sol  =         0.00000000
  ---------------------------------------------------
  free energy    TOTEN  =       -41.93986192 eV

  energy without entropy =      -41.96328542  energy(sigma->0) =      -41.94766975


--------------------------------------------------------------------------------------------------------




----------------------------------------- Iteration    1(  15)  ---------------------------------------


    POTLOK:  cpu time    4.2736: real time    0.2141
    SETDIJ:  cpu time    0.3879: real time    0.0194
     EDDAV:  cpu time   97.0682: real time    4.8826
       DOS:  cpu time    0.0233: real time    0.0012
    CHARGE:  cpu time    1.8784: real time    0.0943
    MIXING:  cpu time    0.1754: real time    0.0088
    --------------------------------------------
      LOOP:  cpu time  103.8193: real time    5.2210

 eigenvalue-minimisations  :   920
 total energy-change (2. order) : 0.1570334E-03  (-0.2262645E-06)
 number of electron      54.0000005 magnetization 
 augmentation part       -1.9760260 magnetization 

 Broyden mixing:
  rms(total) = 0.22853E-01    rms(broyden)= 0.22853E-01
  rms(prec ) = 0.35374E-01
  weight for this iteration     100.00

 eigenvalues of (default mixing * dielectric matrix)
  average eigenvalue GAMMA=   1.0349
  2.3814  2.2117  1.4675  1.0029  0.6616  0.6616  0.5099  0.4832  0.4847  0.4847

 Free energy of the ion-electron system (eV)
  ---------------------------------------------------
  alpha Z        PSCENC =        99.60307510
  Ewald energy   TEWEN  =      2862.10097504
  -Hartree energ DENC   =     -5095.54314848
  -exchange      EXHF   =         0.00000000
  -V(xc)+E(xc)   XCENC  =      -116.39262026
  PAW double counting   =      5857.53551674    -5620.64798433
  entropy T*S    EENTRO =         0.02372747
  eigenvalues    EBANDS =      -289.62926073
  atomic energy  EATOM  =      2261.01001458
  Solvation  Ediel_sol  =         0.00000000
  ---------------------------------------------------
  free energy    TOTEN  =       -41.93970489 eV

  energy without entropy =      -41.96343235  energy(sigma->0) =      -41.94761404


--------------------------------------------------------------------------------------------------------




----------------------------------------- Iteration    1(  16)  ---------------------------------------


    POTLOK:  cpu time    4.1581: real time    0.2083
    SETDIJ:  cpu time    0.1417: real time    0.0175
     EDDAV:  cpu time   94.7105: real time    4.7636
       DOS:  cpu time    0.0228: real time    0.0011
    CHARGE:  cpu time    1.9303: real time    0.0966
    MIXING:  cpu time    0.1814: real time    0.0091
    --------------------------------------------
      LOOP:  cpu time  101.1564: real time    5.0969

 eigenvalue-minimisations  :   888
 total energy-change (2. order) :-0.6605046E-03  (-0.1260144E-04)
 number of electron      54.0000005 magnetization 
 augmentation part       -1.9752697 magnetization 

 Broyden mixing:
  rms(total) = 0.20509E-01    rms(broyden)= 0.20506E-01
  rms(prec ) = 0.31572E-01
  weight for this iteration     100.00

 eigenvalues of (default mixing * dielectric matrix)
  average eigenvalue GAMMA=   0.9887
  2.3814  2.2164  1.4743  0.9972  0.5972  0.5972  0.6553  0.6553  0.5106  0.4968
  0.2940

 Free energy of the ion-electron system (eV)
  ---------------------------------------------------
  alpha Z        PSCENC =        99.60307510
  Ewald energy   TEWEN  =      2862.10097504
  -Hartree energ DENC   =     -5095.53390374
  -exchange      EXHF   =         0.00000000
  -V(xc)+E(xc)   XCENC  =      -116.38927937
  PAW double counting   =      5862.94942033    -5626.06269388
  entropy T*S    EENTRO =         0.02280265
  eigenvalues    EBANDS =      -289.64077610
  atomic energy  EATOM  =      2261.01001458
  Solvation  Ediel_sol  =         0.00000000
  ---------------------------------------------------
  free energy    TOTEN  =       -41.94036539 eV

  energy without entropy =      -41.96316803  energy(sigma->0) =      -41.94796627


--------------------------------------------------------------------------------------------------------




----------------------------------------- Iteration    1(  17)  ---------------------------------------


    POTLOK:  cpu time    2.4593: real time    0.1963
    SETDIJ:  cpu time    0.0165: real time    0.0165
     EDDAV:  cpu time   95.6641: real time    4.8099
       DOS:  cpu time    0.0234: real time    0.0012
    CHARGE:  cpu time    1.9599: real time    0.0981
    MIXING:  cpu time    0.1879: real time    0.0094
    --------------------------------------------
      LOOP:  cpu time  100.3234: real time    5.1319

 eigenvalue-minimisations  :   904
 total energy-change (2. order) : 0.2117553E-03  (-0.5956232E-05)
 number of electron      54.0000005 magnetization 
 augmentation part       -1.9748799 magnetization 

 Broyden mixing:
  rms(total) = 0.20670E-01    rms(broyden)= 0.20667E-01
  rms(prec ) = 0.31427E-01
  weight for this iteration     100.00

 eigenvalues of (default mixing * dielectric matrix)
  average eigenvalue GAMMA=   0.9237
  2.3865  2.2123  1.4751  0.9970  0.6390  0.6390  0.6586  0.6586  0.5106  0.4947
  0.3100  0.1026

 Free energy of the ion-electron system (eV)
  ---------------------------------------------------
  alpha Z        PSCENC =        99.60307510
  Ewald energy   TEWEN  =      2862.10097504
  -Hartree energ DENC   =     -5095.71853867
  -exchange      EXHF   =         0.00000000
  -V(xc)+E(xc)   XCENC  =      -116.38898984
  PAW double counting   =      5861.69439930    -5624.80884864
  entropy T*S    EENTRO =         0.02167849
  eigenvalues    EBANDS =      -289.45391898
  atomic energy  EATOM  =      2261.01001458
  Solvation  Ediel_sol  =         0.00000000
  ---------------------------------------------------
  free energy    TOTEN  =       -41.94015363 eV

  energy without entropy =      -41.96183212  energy(sigma->0) =      -41.94737980


--------------------------------------------------------------------------------------------------------




----------------------------------------- Iteration    1(  18)  ---------------------------------------


    POTLOK:  cpu time    3.7852: real time    0.2103
    SETDIJ:  cpu time    0.0165: real time    0.0165
     EDDAV:  cpu time   93.6126: real time    4.7138
       DOS:  cpu time    0.0225: real time    0.0011
    CHARGE:  cpu time    1.9543: real time    0.0978
    MIXING:  cpu time    0.2108: real time    0.0106
    --------------------------------------------
      LOOP:  cpu time   99.6138: real time    5.0507

 eigenvalue-minimisations  :   872
 total energy-change (2. order) : 0.1033354E-03  (-0.1839000E-06)
 number of electron      54.0000005 magnetization 
 augmentation part       -1.9749005 magnetization 

 Broyden mixing:
  rms(total) = 0.20977E-01    rms(broyden)= 0.20977E-01
  rms(prec ) = 0.31952E-01
  weight for this iteration     100.00

 eigenvalues of (default mixing * dielectric matrix)
  average eigenvalue GAMMA=   1.0886
  2.5282  1.7276  1.7276  1.4821  1.4821  0.9209  0.9174  0.6914  0.6914  0.5101
  0.5581  0.5581  0.3565

 Free energy of the ion-electron system (eV)
  ---------------------------------------------------
  alpha Z        PSCENC =        99.60307510
  Ewald energy   TEWEN  =      2862.10097504
  -Hartree energ DENC   =     -5095.73038020
  -exchange      EXHF   =         0.00000000
  -V(xc)+E(xc)   XCENC  =      -116.38878451
  PAW double counting   =      5862.23252040    -5625.34700714
  entropy T*S    EENTRO =         0.02183936
  eigenvalues    EBANDS =      -289.44230293
  atomic energy  EATOM  =      2261.01001458
  Solvation  Ediel_sol  =         0.00000000
  ---------------------------------------------------
  free energy    TOTEN  =       -41.94005030 eV

  energy without entropy =      -41.96188966  energy(sigma->0) =      -41.94733008


--------------------------------------------------------------------------------------------------------




----------------------------------------- Iteration    1(  19)  ---------------------------------------


    POTLOK:  cpu time    2.8412: real time    0.2003
    SETDIJ:  cpu time    0.0165: real time    0.0166
     EDDAV:  cpu time   94.1142: real time    4.7322
       DOS:  cpu time    0.0232: real time    0.0012
    CHARGE:  cpu time    1.9231: real time    0.0965
    MIXING:  cpu time    0.2028: real time    0.0102
    --------------------------------------------
      LOOP:  cpu time   99.1332: real time    5.0574

 eigenvalue-minimisations  :   888
 total energy-change (2. order) :-0.2168046E-02  ( 0.5108235E-03)
 number of electron      54.0000005 magnetization 
 augmentation part       -1.9722404 magnetization 

 Broyden mixing:
  rms(total) = 0.53514E-01    rms(broyden)= 0.53501E-01
  rms(prec ) = 0.54604E-01
  weight for this iteration     100.00

 eigenvalues of (default mixing * dielectric matrix)
  average eigenvalue GAMMA=   1.0990
  2.8617  2.0863  2.0863  0.9060  1.6706  0.3556  0.7030  0.7030  0.9338  0.8258
  0.6150  0.6150  0.5117  0.5117

 Free energy of the ion-electron system (eV)
  ---------------------------------------------------
  alpha Z        PSCENC =        99.60307510
  Ewald energy   TEWEN  =      2862.10097504
  -Hartree energ DENC   =     -5093.88663751
  -exchange      EXHF   =         0.00000000
  -V(xc)+E(xc)   XCENC  =      -116.40138496
  PAW double counting   =      5825.89227958    -5589.01914155
  entropy T*S    EENTRO =         0.01531574
  eigenvalues    EBANDS =      -291.25671437
  atomic energy  EATOM  =      2261.01001458
  Solvation  Ediel_sol  =         0.00000000
  ---------------------------------------------------
  free energy    TOTEN  =       -41.94221834 eV

  energy without entropy =      -41.95753409  energy(sigma->0) =      -41.94732359


--------------------------------------------------------------------------------------------------------




----------------------------------------- Iteration    1(  20)  ---------------------------------------


    POTLOK:  cpu time    4.2145: real time    0.2116
    SETDIJ:  cpu time    0.3859: real time    0.0193
     EDDAV:  cpu time   95.0719: real time    4.7709
       DOS:  cpu time    0.0253: real time    0.0013
    CHARGE:  cpu time    1.9155: real time    0.0966
    MIXING:  cpu time    0.2095: real time    0.0105
    --------------------------------------------
      LOOP:  cpu time  101.8355: real time    5.1108

 eigenvalue-minimisations  :   888
 total energy-change (2. order) :-0.1286688E-02  (-0.1245645E-04)
 number of electron      54.0000005 magnetization 
 augmentation part       -1.9733967 magnetization 

 Broyden mixing:
  rms(total) = 0.77795E-01    rms(broyden)= 0.77794E-01
  rms(prec ) = 0.78229E-01
  weight for this iteration     100.00

 eigenvalues of (default mixing * dielectric matrix)
  average eigenvalue GAMMA=   1.0643
  3.0482  2.0781  2.0781  0.9178  1.6268  0.3555  0.9588  0.6717  0.6717  0.8068
  0.6084  0.6084  0.5109  0.5109  0.5116

 Free energy of the ion-electron system (eV)
  ---------------------------------------------------
  alpha Z        PSCENC =        99.60307510
  Ewald energy   TEWEN  =      2862.10097504
  -Hartree energ DENC   =     -5092.64213600
  -exchange      EXHF   =         0.00000000
  -V(xc)+E(xc)   XCENC  =      -116.41283112
  PAW double counting   =      5812.35614010    -5575.48803396
  entropy T*S    EENTRO =         0.01316928
  eigenvalues    EBANDS =      -292.48387805
  atomic energy  EATOM  =      2261.01001458
  Solvation  Ediel_sol  =         0.00000000
  ---------------------------------------------------
  free energy    TOTEN  =       -41.94350503 eV

  energy without entropy =      -41.95667431  energy(sigma->0) =      -41.94789479


--------------------------------------------------------------------------------------------------------




----------------------------------------- Iteration    1(  21)  ---------------------------------------


    POTLOK:  cpu time    3.5181: real time    0.2073
    SETDIJ:  cpu time    0.0165: real time    0.0166
     EDDAV:  cpu time   95.8410: real time    4.8195
       DOS:  cpu time    0.0229: real time    0.0011
    CHARGE:  cpu time    1.8204: real time    0.0911
    MIXING:  cpu time    0.2169: real time    0.0109
    --------------------------------------------
      LOOP:  cpu time  101.4469: real time    5.1471

 eigenvalue-minimisations  :   912
 total energy-change (2. order) :-0.5744158E-03  (-0.1597957E-05)
 number of electron      54.0000005 magnetization 
 augmentation part       -1.9725369 magnetization 

 Broyden mixing:
  rms(total) = 0.71674E-01    rms(broyden)= 0.71674E-01
  rms(prec ) = 0.72147E-01
  weight for this iteration     100.00

 eigenvalues of (default mixing * dielectric matrix)
  average eigenvalue GAMMA=   1.0109
  3.0590  2.0822  2.0822  0.9156  1.6138  0.3556  0.9551  0.7002  0.7002  0.8002
  0.6120  0.6120  0.5120  0.5133  0.5133  0.1472

 Free energy of the ion-electron system (eV)
  ---------------------------------------------------
  alpha Z        PSCENC =        99.60307510
  Ewald energy   TEWEN  =      2862.10097504
  -Hartree energ DENC   =     -5092.40017148
  -exchange      EXHF   =         0.00000000
  -V(xc)+E(xc)   XCENC  =      -116.41200352
  PAW double counting   =      5818.25031175    -5581.38352732
  entropy T*S    EENTRO =         0.01285591
  eigenvalues    EBANDS =      -292.72560951
  atomic energy  EATOM  =      2261.01001458
  Solvation  Ediel_sol  =         0.00000000
  ---------------------------------------------------
  free energy    TOTEN  =       -41.94407945 eV

  energy without entropy =      -41.95693536  energy(sigma->0) =      -41.94836475


--------------------------------------------------------------------------------------------------------




----------------------------------------- Iteration    1(  22)  ---------------------------------------


    POTLOK:  cpu time    4.2311: real time    0.2120
    SETDIJ:  cpu time    0.3614: real time    0.0193
     EDDAV:  cpu time   94.9601: real time    4.7772
       DOS:  cpu time    0.0233: real time    0.0012
    CHARGE:  cpu time    1.8174: real time    0.0910
    MIXING:  cpu time    0.2250: real time    0.0113
    --------------------------------------------
      LOOP:  cpu time  101.6309: real time    5.1125

 eigenvalue-minimisations  :   896
 total energy-change (2. order) :-0.3140153E-03  (-0.2193730E-06)
 number of electron      54.0000005 magnetization 
 augmentation part       -1.9726814 magnetization 

 Broyden mixing:
  rms(total) = 0.65508E-01    rms(broyden)= 0.65508E-01
  rms(prec ) = 0.66035E-01
  weight for this iteration     100.00

 eigenvalues of (default mixing * dielectric matrix)
  average eigenvalue GAMMA=   1.1136
  3.3084  2.1772  2.1772  0.9339  1.1786  1.1786  1.5371  0.3554  0.9614  0.7852
  0.7852  0.7045  0.7045  0.5660  0.5660  0.5061  0.5061

 Free energy of the ion-electron system (eV)
  ---------------------------------------------------
  alpha Z        PSCENC =        99.60307510
  Ewald energy   TEWEN  =      2862.10097504
  -Hartree energ DENC   =     -5092.34067341
  -exchange      EXHF   =         0.00000000
  -V(xc)+E(xc)   XCENC  =      -116.41199222
  PAW double counting   =      5823.15698506    -5586.28958631
  entropy T*S    EENTRO =         0.01273587
  eigenvalues    EBANDS =      -292.78592717
  atomic energy  EATOM  =      2261.01001458
  Solvation  Ediel_sol  =         0.00000000
  ---------------------------------------------------
  free energy    TOTEN  =       -41.94439346 eV

  energy without entropy =      -41.95712933  energy(sigma->0) =      -41.94863875


--------------------------------------------------------------------------------------------------------




----------------------------------------- Iteration    1(  23)  ---------------------------------------


    POTLOK:  cpu time    2.4559: real time    0.2023
    SETDIJ:  cpu time    0.0166: real time    0.0166
     EDDAV:  cpu time   94.9565: real time    4.7745
       DOS:  cpu time    0.0228: real time    0.0011
    CHARGE:  cpu time    1.7570: real time    0.0881
    MIXING:  cpu time    0.2334: real time    0.0117
    --------------------------------------------
      LOOP:  cpu time   99.4547: real time    5.0950

 eigenvalue-minimisations  :   896
 total energy-change (2. order) :-0.1742218E-02  (-0.1076425E-05)
 number of electron      54.0000005 magnetization 
 augmentation part       -1.9728449 magnetization 

 Broyden mixing:
  rms(total) = 0.48911E-01    rms(broyden)= 0.48911E-01
  rms(prec ) = 0.49793E-01
  weight for this iteration     100.00

 eigenvalues of (default mixing * dielectric matrix)
  average eigenvalue GAMMA=   1.0919
  3.3385  2.1953  2.1953  0.9355  1.2873  1.2873  1.5192  0.3554  0.9596  0.8359
  0.8359  0.6879  0.6879  0.5895  0.5516  0.5111  0.5111  0.3690

 Free energy of the ion-electron system (eV)
  ---------------------------------------------------
  alpha Z        PSCENC =        99.60307510
  Ewald energy   TEWEN  =      2862.10097504
  -Hartree energ DENC   =     -5091.74670697
  -exchange      EXHF   =         0.00000000
  -V(xc)+E(xc)   XCENC  =      -116.41348351
  PAW double counting   =      5837.81624827    -5600.94946758
  entropy T*S    EENTRO =         0.01241130
  eigenvalues    EBANDS =      -293.37920191
  atomic energy  EATOM  =      2261.01001458
  Solvation  Ediel_sol  =         0.00000000
  ---------------------------------------------------
  free energy    TOTEN  =       -41.94613568 eV

  energy without entropy =      -41.95854698  energy(sigma->0) =      -41.95027278


--------------------------------------------------------------------------------------------------------




----------------------------------------- Iteration    1(  24)  ---------------------------------------


    POTLOK:  cpu time    4.2375: real time    0.2121
    SETDIJ:  cpu time    0.2714: real time    0.0186
     EDDAV:  cpu time   96.4753: real time    4.8504
       DOS:  cpu time    0.0220: real time    0.0011
    CHARGE:  cpu time    1.7829: real time    0.0893
    MIXING:  cpu time    0.2581: real time    0.0129
    --------------------------------------------
      LOOP:  cpu time  103.0590: real time    5.1851

 eigenvalue-minimisations  :   912
 total energy-change (2. order) :-0.1004801E-02  (-0.2908112E-06)
 number of electron      54.0000005 magnetization 
 augmentation part       -1.9729041 magnetization 

 Broyden mixing:
  rms(total) = 0.52221E-01    rms(broyden)= 0.52221E-01
  rms(prec ) = 0.53209E-01
  weight for this iteration     100.00

 eigenvalues of (default mixing * dielectric matrix)
  average eigenvalue GAMMA=   1.1917
  3.4119  1.9890  1.9890  2.1659  2.1659  0.9383  1.5667  1.0766  1.0766  0.3554
  0.9545  0.7231  0.7231  0.6743  0.6743  0.5726  0.5726  0.5060  0.5060

 Free energy of the ion-electron system (eV)
  ---------------------------------------------------
  alpha Z        PSCENC =        99.60307510
  Ewald energy   TEWEN  =      2862.10097504
  -Hartree energ DENC   =     -5091.41781092
  -exchange      EXHF   =         0.00000000
  -V(xc)+E(xc)   XCENC  =      -116.41594528
  PAW double counting   =      5834.80877451    -5597.94234964
  entropy T*S    EENTRO =         0.01248275
  eigenvalues    EBANDS =      -293.70635662
  atomic energy  EATOM  =      2261.01001458
  Solvation  Ediel_sol  =         0.00000000
  ---------------------------------------------------
  free energy    TOTEN  =       -41.94714048 eV

  energy without entropy =      -41.95962323  energy(sigma->0) =      -41.95130140


--------------------------------------------------------------------------------------------------------




----------------------------------------- Iteration    1(  25)  ---------------------------------------


    POTLOK:  cpu time    4.2661: real time    0.2135
    SETDIJ:  cpu time    0.3879: real time    0.0194
     EDDAV:  cpu time   95.6374: real time    4.8106
       DOS:  cpu time    0.0225: real time    0.0011
    CHARGE:  cpu time    1.8146: real time    0.0908
    MIXING:  cpu time    0.2657: real time    0.0133
    --------------------------------------------
      LOOP:  cpu time  102.4078: real time    5.1494

 eigenvalue-minimisations  :   896
 total energy-change (2. order) :-0.3866153E-02  (-0.7683104E-06)
 number of electron      54.0000005 magnetization 
 augmentation part       -1.9735444 magnetization 

 Broyden mixing:
  rms(total) = 0.55852E-01    rms(broyden)= 0.55851E-01
  rms(prec ) = 0.57529E-01
  weight for this iteration     100.00

 eigenvalues of (default mixing * dielectric matrix)
  average eigenvalue GAMMA=   1.2500
  3.6551  2.4851  2.4851  2.1123  2.1123  0.9389  1.6549  1.1979  1.1979  0.3554
  0.9655  0.8579  0.8579  0.7101  0.7101  0.5642  0.5642  0.5671  0.5077  0.5009

 Free energy of the ion-electron system (eV)
  ---------------------------------------------------
  alpha Z        PSCENC =        99.60307510
  Ewald energy   TEWEN  =      2862.10097504
  -Hartree energ DENC   =     -5090.49662179
  -exchange      EXHF   =         0.00000000
  -V(xc)+E(xc)   XCENC  =      -116.42182528
  PAW double counting   =      5831.30769772    -5594.44109551
  entropy T*S    EENTRO =         0.01337471
  eigenvalues    EBANDS =      -294.62660120
  atomic energy  EATOM  =      2261.01001458
  Solvation  Ediel_sol  =         0.00000000
  ---------------------------------------------------
  free energy    TOTEN  =       -41.95100664 eV

  energy without entropy =      -41.96438134  energy(sigma->0) =      -41.95546487


--------------------------------------------------------------------------------------------------------




----------------------------------------- Iteration    1(  26)  ---------------------------------------


    POTLOK:  cpu time    4.3008: real time    0.2219
    SETDIJ:  cpu time    0.3688: real time    0.0194
     EDDAV:  cpu time   97.8158: real time    4.9078
       DOS:  cpu time    0.0224: real time    0.0011
    CHARGE:  cpu time    1.8047: real time    0.0909
    MIXING:  cpu time    0.2908: real time    0.0146
    --------------------------------------------
      LOOP:  cpu time  104.6169: real time    5.2563

 eigenvalue-minimisations  :   912
 total energy-change (2. order) :-0.3599095E-02  (-0.8971300E-06)
 number of electron      54.0000006 magnetization 
 augmentation part       -1.9737788 magnetization 

 Broyden mixing:
  rms(total) = 0.58126E-01    rms(broyden)= 0.58125E-01
  rms(prec ) = 0.60684E-01
  weight for this iteration     100.00

 eigenvalues of (default mixing * dielectric matrix)
  average eigenvalue GAMMA=   1.2116
  3.6538  2.5912  2.5912  2.1097  2.1097  0.9389  1.6697  1.1922  1.1922  0.3554
  0.9669  0.8717  0.8717  0.7084  0.7084  0.5544  0.5544  0.5677  0.5088  0.4989
  0.2282

 Free energy of the ion-electron system (eV)
  ---------------------------------------------------
  alpha Z        PSCENC =        99.60307510
  Ewald energy   TEWEN  =      2862.10097504
  -Hartree energ DENC   =     -5089.85499450
  -exchange      EXHF   =         0.00000000
  -V(xc)+E(xc)   XCENC  =      -116.42461654
  PAW double counting   =      5830.13942070    -5593.27292238
  entropy T*S    EENTRO =         0.01471552
  eigenvalues    EBANDS =      -295.27027325
[...]
    152      28.4115      0.00000
    153      28.5037      0.00000
    154      28.5425      0.00000
    155      28.6130      0.00000
    156      28.6824      0.00000
    157      28.8438      0.00000
    158      29.1970      0.00000
    159      29.2559      0.00000
    160      29.2680      0.00000
    161      29.4513      0.00000
    162      29.5023      0.00000
    163      29.5617      0.00000
    164      29.8885      0.00000
    165      30.0104      0.00000
    166      30.1278      0.00000
    167      30.1694      0.00000
    168      30.2533      0.00000
    169      30.4155      0.00000
    170      30.5056      0.00000
    171      30.6637      0.00000
    172      30.8051      0.00000
    173      30.9793      0.00000
    174      31.2860      0.00000
    175      31.3963      0.00000
    176      31.4740      0.00000
    177      31.6079      0.00000
    178      31.6176      0.00000
    179      32.1981      0.00000
    180      32.2764      0.00000
    181      32.5868      0.00000
    182      32.5926      0.00000
    183      32.6768      0.00000
    184      32.8600      0.00000
    185      33.2095      0.00000
    186      33.2744      0.00000
    187      33.3484      0.00000
    188      33.7761      0.00000
    189      33.8352      0.00000
    190      33.8586      0.00000
    191      33.9933      0.00000
    192      34.1413      0.00000
    193      34.4055      0.00000
    194      34.4175      0.00000
    195      34.8068      0.00000
    196      34.8393      0.00000
    197      34.8772      0.00000
    198      34.9951      0.00000
    199      35.0805      0.00000
    200      35.3489      0.00000
    201      35.4065      0.00000
    202      35.8043      0.00000
    203      36.1886      0.00000
    204      36.1973      0.00000
    205      36.5529      0.00000
    206      36.5801      0.00000
    207      36.6520      0.00000
    208      36.7279      0.00000
    209      36.7962      0.00000
    210      36.9949      0.00000
    211      37.3236      0.00000
    212      37.3688      0.00000
    213      37.3863      0.00000
    214      37.6584      0.00000
    215      37.6865      0.00000
    216      37.7884      0.00000
    217      38.1010      0.00000
    218      38.3450      0.00000
    219      38.5433      0.00000
    220      38.6477      0.00000
    221      38.7000      0.00000
    222      38.7593      0.00000
    223      38.8824      0.00000
    224      39.2426      0.00000
    225      39.2998      0.00000
    226      39.4695      0.00000
    227      39.5212      0.00000
    228      39.6037      0.00000
    229      39.6869      0.00000
    230      39.7377      0.00000
    231      40.1716      0.00000
    232      40.1859      0.00000
    233      40.4157      0.00000
    234      40.4428      0.00000
    235      40.5821      0.00000
    236      40.7507      0.00000
    237      40.7710      0.00000
    238      41.0105      0.00000
    239      41.0366      0.00000
    240      41.3358      0.00000
    241      41.4216      0.00000
    242      41.4467      0.00000
    243      41.4876      0.00000
    244      41.7369      0.00000
    245      41.7640      0.00000
    246      41.9503      0.00000
    247      41.9650      0.00000
    248      42.1374      0.00000
    249      42.1501      0.00000
    250      42.6011      0.00000
    251      42.6073      0.00000
    252      42.6091      0.00000
    253      42.6576      0.00000
    254      42.8417      0.00000
    255      42.8470      0.00000
    256      42.9632      0.00000
    257      43.0977      0.00000
    258      43.1184      0.00000
    259      43.1900      0.00000
    260      43.2853      0.00000
    261      43.4368      0.00000
    262      43.9803      0.00000
    263      43.9990      0.00000
    264      44.3636      0.00000
    265      44.5185      0.00000
    266      44.5331      0.00000
    267      44.5646      0.00000
    268      44.5892      0.00000
    269      45.0147      0.00000
    270      45.0641      0.00000
    271      45.2354      0.00000
    272      45.2822      0.00000
    273      45.4402      0.00000
    274      45.5140      0.00000
    275      45.5198      0.00000
    276      45.5347      0.00000
    277      45.6353      0.00000
    278      45.7728      0.00000
    279      45.8807      0.00000
    280      45.8948      0.00000
    281      46.2337      0.00000
    282      46.3507      0.00000
    283      46.4992      0.00000
    284      46.6136      0.00000
    285      46.7424      0.00000
    286      46.9208      0.00000
    287      47.0875      0.00000
    288      47.1295      0.00000
    289      47.3837      0.00000
    290      47.7080      0.00000
    291      47.7480      0.00000
    292      47.9005      0.00000
    293      47.9364      0.00000
    294      48.9078      0.00000
    295      49.0288      0.00000
    296      49.1085      0.00000
    297      49.1740      0.00000
    298      49.2006      0.00000
    299      49.8520      0.00000
    300      49.9069      0.00000
    301      50.0770      0.00000
    302      50.2987      0.00000
    303      50.5977      0.00000
    304      50.6941      0.00000
    305      50.7155      0.00000
    306      50.9301      0.00000
    307      51.0729      0.00000
    308      51.0788      0.00000
    309      51.6639      0.00000
    310      51.8624      0.00000
    311      52.1540      0.00000
    312      52.2780      0.00000
    313      52.4539      0.00000
    314      52.7038      0.00000
    315      52.8250      0.00000
    316      53.0414      0.00000
    317      53.1814      0.00000
    318      53.3485      0.00000
    319      53.8318      0.00000
    320      54.3096      0.00000
    321      54.3256      0.00000
    322      54.4453      0.00000
    323      54.7399      0.00000
    324      55.1881      0.00000
    325      55.3496      0.00000
    326      55.4394      0.00000
    327      55.5085      0.00000
    328      55.6191      0.00000
    329      56.0148      0.00000
    330      56.1197      0.00000
    331      56.1421      0.00000
    332      56.4225      0.00000
    333      56.4677      0.00000
    334      56.5577      0.00000
    335      56.6212      0.00000
    336      56.6729      0.00000
    337      56.8085      0.00000
    338      57.0972      0.00000
    339      57.1075      0.00000
    340      57.1830      0.00000
    341      57.3532      0.00000
    342      57.3884      0.00000
    343      57.4374      0.00000
    344      57.7476      0.00000
    345      57.8258      0.00000
    346      57.8713      0.00000
    347      57.9174      0.00000
    348      58.0091      0.00000
    349      58.2382      0.00000
    350      58.2556      0.00000
    351      58.3092      0.00000
    352      58.3441      0.00000
    353      58.7310      0.00000
    354      58.7584      0.00000
    355      58.7736      0.00000
    356      58.9174      0.00000
    357      58.9702      0.00000
    358      59.1465      0.00000
    359      59.2035      0.00000
    360      59.3842      0.00000
    361      59.4406      0.00000
    362      59.5088      0.00000
    363      59.6996      0.00000
    364      59.7470      0.00000
    365      59.8477      0.00000
    366      59.9676      0.00000
    367      60.1148      0.00000
    368      60.1557      0.00000
    369      60.3587      0.00000
    370      60.5434      0.00000
    371      60.7187      0.00000
    372      60.8610      0.00000
    373      61.1686      0.00000
    374      61.2097      0.00000
    375      61.2265      0.00000
    376      61.3748      0.00000
    377      61.4896      0.00000
    378      61.5249      0.00000
    379      61.6393      0.00000
    380      61.8451      0.00000
    381      62.0435      0.00000
    382      62.1212      0.00000
    383      62.1634      0.00000
    384      62.1841      0.00000
    385      62.3674      0.00000
    386      62.4705      0.00000
    387      62.5020      0.00000
    388      62.5134      0.00000


--------------------------------------------------------------------------------------------------------


 soft charge-density along one line, spin component           1
         0         1         2         3         4         5         6         7         8         9
 total charge-density along one line
 
 pseudopotential strength for first ion, spin component:           1
 -8.824  -0.000   0.000   0.000   0.000  -9.027  -0.000   0.000
 -0.000  -8.738   0.000  -0.000   0.000  -0.000  -8.942   0.000
  0.000   0.000  -8.616   0.000  -0.000   0.000   0.000  -8.821
  0.000  -0.000   0.000  -8.738  -0.000   0.000  -0.000   0.000
  0.000   0.000  -0.000  -0.000  -8.824   0.000   0.000  -0.000
 -9.027  -0.000   0.000   0.000   0.000  -9.219  -0.000   0.000
 -0.000  -8.942   0.000  -0.000   0.000  -0.000  -9.135   0.000
  0.000   0.000  -8.821   0.000  -0.000   0.000   0.000  -9.014
  0.000  -0.000   0.000  -8.942  -0.000   0.000  -0.000   0.000
  0.000   0.000  -0.000  -0.000  -9.027   0.000   0.000  -0.000
  0.000  -0.000  -0.043   0.000  -0.000   0.000  -0.000  -0.043
  0.000  -0.000  -0.086   0.000  -0.000   0.000  -0.000  -0.085
  0.000   0.001   0.000   0.000   0.014   0.000   0.001   0.000
  0.000  -0.000   0.001   0.000   0.000  -0.000  -0.000   0.001
  0.014   0.000  -0.000   0.001   0.000   0.014  -0.000  -0.000
  0.000   0.002   0.000  -0.000   0.019   0.000   0.002   0.000
 -0.000  -0.000   0.002   0.000   0.000  -0.000  -0.000   0.002
  0.019  -0.000  -0.000   0.002   0.000   0.019  -0.000  -0.000
 total augmentation occupancy for first ion, spin component:           1
  5.582   0.000  -0.000  -0.026   0.000  -7.790  -0.000   0.000   0.033  -0.000   0.000  -0.000  -0.000  -0.000   0.489  -0.000
  0.000   2.018  -0.000  -0.000  -0.026  -0.000  -3.280   0.000   0.000   0.033   0.000  -0.000  -0.002   0.000   0.000  -0.000
 -0.000  -0.000   7.510  -0.000   0.000   0.000   0.000  -8.320   0.000  -0.000   2.827  -0.172   0.000   0.008  -0.000  -0.000
 -0.026  -0.000  -0.000   2.018   0.000   0.033   0.000   0.000  -3.281  -0.000   0.000   0.000   0.000  -0.000  -0.002  -0.000
  0.000  -0.026   0.000   0.000   5.582  -0.000   0.033  -0.000  -0.000  -7.790  -0.000   0.000   0.489  -0.000  -0.000  -0.060
 -7.790  -0.000   0.000   0.033  -0.000  10.872   0.000  -0.000  -0.041   0.000  -0.000   0.000   0.000   0.000  -0.682   0.000
 -0.000  -3.280   0.000   0.000   0.033   0.000   5.333  -0.000  -0.001  -0.041  -0.000   0.000   0.003  -0.000  -0.000   0.000
  0.000   0.000  -8.320   0.000  -0.000  -0.000  -0.000  10.779  -0.000   0.000  -2.731   0.142  -0.000  -0.007   0.000   0.000
  0.033   0.000   0.000  -3.281  -0.000  -0.041  -0.001  -0.000   5.334   0.000  -0.000  -0.000  -0.000   0.000   0.003   0.000
 -0.000   0.033  -0.000  -0.000  -7.790   0.000  -0.041   0.000   0.000  10.872   0.000  -0.000  -0.682   0.000   0.000   0.084
  0.000   0.000   2.827   0.000  -0.000  -0.000  -0.000  -2.731  -0.000   0.000   2.779  -0.297  -0.000   0.002   0.000   0.000
 -0.000  -0.000  -0.172   0.000   0.000   0.000   0.000   0.142  -0.000  -0.000  -0.297   0.035   0.000  -0.000  -0.000  -0.000
 -0.000  -0.002   0.000   0.000   0.489   0.000   0.003  -0.000  -0.000  -0.682  -0.000   0.000   0.043  -0.000  -0.000  -0.005
 -0.000   0.000   0.008  -0.000  -0.000   0.000  -0.000  -0.007   0.000   0.000   0.002  -0.000  -0.000   0.487  -0.000  -0.000
  0.489   0.000  -0.000  -0.002  -0.000  -0.682  -0.000   0.000   0.003   0.000   0.000  -0.000  -0.000  -0.000   0.043  -0.000
 -0.000  -0.000  -0.000  -0.000  -0.060   0.000   0.000   0.000   0.000   0.084   0.000  -0.000  -0.005  -0.000  -0.000   0.001
  0.000  -0.000  -0.001   0.000   0.000  -0.000   0.000   0.001  -0.000  -0.000  -0.000   0.000   0.000  -0.067   0.000   0.000
 -0.060  -0.000   0.000  -0.000  -0.000   0.084   0.000  -0.000   0.000   0.000  -0.000   0.000  -0.000   0.000  -0.005   0.000


------------------------ aborting loop because EDIFF is reached ----------------------------------------


 


 total charge     
 
# of ion     s       p       d       tot
----------------------------------------
  1        0.576   0.297   5.247   6.120
  2        0.576   0.291   5.320   6.188
  3        1.247   2.494   0.000   3.741
  4        1.248   2.494   0.000   3.742
  5        1.230   2.526   0.000   3.755
  6        1.229   2.527   0.000   3.757
  7        1.338   2.504   0.119   3.961
  8        1.338   2.505   0.121   3.964
  9        0.717   0.323   5.116   6.156
------------------------------------------------
tot        9.500  15.961  15.923  41.384
 
    CHARGE:  cpu time    1.9550: real time    0.0979
    FORLOC:  cpu time    0.8968: real time    0.0449
    FORNL :  cpu time    2.6241: real time    0.8796
    STRESS:  cpu time    1.1709: real time    1.1710
    FORCOR:  cpu time    0.2432: real time    0.2432
    FORHAR:  cpu time    0.0747: real time    0.0747
    MIXING:  cpu time    0.0224: real time    0.0224
    OFIELD:  cpu time    0.0001: real time    0.0000

  FORCE on cell =-STRESS in cart. coord.  units (eV):
  Direction    XX          YY          ZZ          XY          YZ          ZX
  --------------------------------------------------------------------------------------
  Alpha Z    99.60308    99.60308    99.60308
  Ewald    4587.19946  4587.18204 -6312.28321    -0.01286     0.00386    -0.00923
  Hartree  4971.39975  4971.39297 -4853.07935    -0.00528     0.00213    -0.00365
  E(xc)    -219.36213  -219.36182  -222.09982     0.00022    -0.00002     0.00012
  Local  -10386.55268-10386.52965 10266.21718     0.01729    -0.00534     0.01070
  n-local   299.27871   299.27954   274.96152     0.00064    -0.00003    -0.00023
  augment   -48.77595   -48.77641   -50.15521     0.00007    -0.00000    -0.00033
  Kinetic   730.66076   730.66044   793.53531    -0.00024     0.00012     0.00035
  Fock        0.00000     0.00000     0.00000     0.00000     0.00000     0.00000
  -------------------------------------------------------------------------------------
  Total      33.45100    33.45018    -3.30051    -0.00016     0.00072    -0.00228
  in kB     174.30190   174.29763   -17.19782    -0.00085     0.00373    -0.01187
  external pressure =      110.47 kB  Pullay stress =        0.00 kB


 VOLUME and BASIS-vectors are now :
 -----------------------------------------------------------------------------
  energy-cutoff  :      258.69
  volume of cell :      307.48
      direct lattice vectors                 reciprocal lattice vectors
     3.185000000  0.000000000  0.000000000     0.313971743  0.181271664  0.000000000
    -1.592500000  2.758291000  0.000000000     0.000000000  0.362543328  0.000000000
     0.000000000  0.000000000 35.000000000     0.000000000  0.000000000  0.028571429

  length of vectors
     3.185000000  3.185000077 35.000000000     0.362543337  0.362543328  0.028571429


 FORCES acting on ions
    electron-ion (+dipol)            ewald-force                    non-local-force                 convergence-correction
 -----------------------------------------------------------------------------------------------
   0.186E-02 -.135E-02 0.347E+03   -.230E-02 0.168E-02 -.347E+03   -.899E-03 0.612E-03 -.479E-01   0.433E-06 -.265E-06 0.129E+00
   -.441E-03 0.199E-03 -.622E+02   0.485E-03 -.194E-03 0.622E+02   0.264E-03 -.865E-04 -.322E-01   -.698E-06 0.429E-06 -.897E-02
   -.803E-03 -.136E-03 0.797E+03   0.113E-02 -.188E-03 -.786E+03   0.136E-03 0.397E-04 -.110E+02   -.278E-06 0.987E-07 0.206E+00
   -.129E-02 0.162E-02 -.102E+03   0.198E-02 -.196E-02 0.905E+02   -.178E-03 -.437E-03 0.112E+02   0.439E-06 -.140E-06 0.505E-01
   -.123E-03 -.166E-03 0.155E+03   -.853E-03 0.715E-03 -.146E+03   0.423E-03 -.109E-03 -.805E+01   -.694E-06 0.390E-06 -.642E-01
   0.299E-02 -.167E-02 -.725E+03   -.286E-02 0.162E-02 0.717E+03   -.152E-02 0.880E-03 0.816E+01   0.672E-06 -.383E-06 -.220E+00
   -.131E-03 0.302E-03 0.364E+03   -.343E-05 -.253E-03 -.356E+03   0.732E-04 -.121E-03 -.715E+01   -.365E-06 0.182E-06 -.177E+00
   0.393E-03 -.417E-03 -.488E+03   -.481E-03 0.446E-03 0.481E+03   -.155E-03 0.177E-03 0.722E+01   -.429E-06 0.220E-06 0.159E+00
   -.232E-02 0.150E-02 -.285E+03   0.291E-02 -.186E-02 0.285E+03   0.122E-02 -.804E-03 -.374E-01   -.234E-06 0.134E-06 -.142E+00
 -----------------------------------------------------------------------------------------------
   0.143E-03 -.114E-03 -.126E+00   0.311E-14 0.747E-13 0.284E-12   -.635E-03 0.151E-03 0.195E+00   -.116E-05 0.667E-06 -.676E-01
 
 
 POSITION                                       TOTAL-FORCE (eV/Angst)
 -----------------------------------------------------------------------------------
      1.47029      0.99602      7.13363        -0.001287      0.000933     -0.105974
      1.62843      0.89190     28.31685         0.000362     -0.000085     -0.074539
      3.06276      0.07659      5.72164         0.000522     -0.000288     -0.072427
      3.06276      0.07663      8.53860         0.000565     -0.000779      0.189709
      1.63459      0.89817     14.01807        -0.000499      0.000436      0.436056
      1.63469      0.89812     16.93752        -0.001332      0.000831     -0.384843
     -1.55657      2.73077     26.75847        -0.000006     -0.000076      0.458373
     -1.55655      2.73075     29.87047        -0.000188      0.000202     -0.384047
     -1.55040      2.73703     15.47946         0.001863     -0.001174     -0.062307
 -----------------------------------------------------------------------------------
    total drift:                               -0.000493      0.000037      0.001452


--------------------------------------------------------------------------------------------------------



  FREE ENERGIE OF THE ION-ELECTRON SYSTEM (eV)
  ---------------------------------------------------
  free  energy   TOTEN  =       -41.93420714 eV

  energy  without entropy=      -41.95955199  energy(sigma->0) =      -41.94265542
 


--------------------------------------------------------------------------------------------------------


    POTLOK:  cpu time    0.2122: real time    0.2123


--------------------------------------------------------------------------------------------------------


 writing wavefunctions
     LOOP+:  cpu time11771.1924: real time  600.5978
    4ORBIT:  cpu time    0.0000: real time    0.0000
 


 total charge     
 
# of ion     s       p       d       tot
----------------------------------------
  1        0.576   0.297   5.247   6.120
  2        0.576   0.291   5.320   6.188
  3        1.247   2.494   0.000   3.741
  4        1.248   2.494   0.000   3.742
  5        1.230   2.526   0.000   3.755
  6        1.229   2.527   0.000   3.757
  7        1.338   2.504   0.119   3.961
  8        1.338   2.505   0.121   3.964
  9        0.717   0.323   5.116   6.156
------------------------------------------------
tot        9.500  15.961  15.923  41.384
 

 total amount of memory used by VASP on root node   106275. kBytes
========================================================================

   base      :      30000. kBytes
   nonl-proj :       2074. kBytes
   fftplans  :      17012. kBytes
   grid      :      38470. kBytes
   one-center:        139. kBytes
   wavefun   :      18580. kBytes
 
  
  
 General timing and accounting informations for this job:
 ========================================================
  
                  Total CPU time used (sec):    11774.119
                            User time (sec):    11545.583
                          System time (sec):      228.536
                         Elapsed time (sec):      602.127
  
                   Maximum memory used (kb):      155584.
                   Average memory used (kb):           0.
  
                          Minor page faults:      1386705
                          Major page faults:            0
                 Voluntary context switches:         7735
