PROCAR lm decomposed
# of k-points:    1         # of bands: 388         # of ions:   9

 k-point    1 :    0.00000000 0.00000000 0.00000000     weight = 1.00000000

band   1 # energy  -15.78069648 # occ.  2.00000000
 
ion      s     py     pz     px    dxy    dyz    dz2    dxz    dx2    tot
  1  0.000  0.000  0.000  0.000  0.000  0.000  0.000  0.000  0.000  0.000
  2  0.117  0.000  0.000  0.000  0.000  0.000  0.002  0.000  0.000  0.119
  3  0.000  0.000  0.000  0.000  0.000  0.000  0.000  0.000  0.000  0.000
  4  0.000  0.000  0.000  0.000  0.000  0.000  0.000  0.000  0.000  0.000
  5  0.000  0.000  0.000  0.000  0.000  0.000  0.000  0.000  0.000  0.000
  6  0.000  0.000  0.000  0.000  0.000  0.000  0.000  0.000  0.000  0.000
  7  0.316  0.000  0.002  0.000  0.000  0.000  0.000  0.000  0.000  0.319
  8  0.314  0.000  0.002  0.000  0.000  0.000  0.000  0.000  0.000  0.316
  9  0.000  0.000  0.000  0.000  0.000  0.000  0.000  0.000  0.000  0.000
tot  0.747  0.000  0.004  0.000  0.000  0.000  0.003  0.000  0.000  0.754
 
band   2 # energy  -15.72316761 # occ.  2.00000000
 
ion      s     py     pz     px    dxy    dyz    dz2    dxz    dx2    tot
  1  0.000  0.000  0.000  0.000  0.000  0.000  0.000  0.000  0.000  0.000
  2  0.000  0.000  0.000  0.000  0.000  0.000  0.000  0.000  0.000  0.000
  3  0.000  0.000  0.000  0.000  0.000  0.000  0.000  0.000  0.000  0.000
  4  0.000  0.000  0.000  0.000  0.000  0.000  0.000  0.000  0.000  0.000
  5  0.268  0.000  0.005  0.000  0.000  0.000  0.000  0.000  0.000  0.273
  6  0.271  0.000  0.005  0.000  0.000  0.000  0.000  0.000  0.000  0.276
  7  0.000  0.000  0.000  0.000  0.000  0.000  0.000  0.000  0.000  0.000
  8  0.000  0.000  0.000  0.000  0.000  0.000  0.000  0.000  0.000  0.000
  9  0.194  0.000  0.000  0.000  0.000  0.000  0.000  0.000  0.000  0.194
tot  0.732  0.000  0.011  0.000  0.000  0.000  0.000  0.000  0.000  0.743
 
band   3 # energy  -15.51363268 # occ.  2.00000000
 
ion      s     py     pz     px    dxy    dyz    dz2    dxz    dx2    tot
  1  0.153  0.000  0.000  0.000  0.000  0.000  0.000  0.000  0.000  0.153
  2  0.000  0.000  0.000  0.000  0.000  0.000  0.000  0.000  0.000  0.000
  3  0.285  0.000  0.004  0.000  0.000  0.000  0.000  0.000  0.000  0.289
  4  0.284  0.000  0.004  0.000  0.000  0.000  0.000  0.000  0.000  0.288
  5  0.000  0.000  0.000  0.000  0.000  0.000  0.000  0.000  0.000  0.000
  6  0.000  0.000  0.000  0.000  0.000  0.000  0.000  0.000  0.000  0.000
  7  0.000  0.000  0.000  0.000  0.000  0.000  0.000  0.000  0.000  0.000
  8  0.000  0.000  0.000  0.000  0.000  0.000  0.000  0.000  0.000  0.000
  9  0.000  0.000  0.000  0.000  0.000  0.000  0.000  0.000  0.000  0.000
tot  0.722  0.000  0.008  0.000  0.000  0.000  0.000  0.000  0.000  0.730
 
band   4 # energy  -14.69452859 # occ.  2.00000000
 
ion      s     py     pz     px    dxy    dyz    dz2    dxz    dx2    tot
  1  0.000  0.000  0.000  0.000  0.000  0.000  0.000  0.000  0.000  0.000
  2  0.000  0.000  0.058  0.000  0.000  0.000  0.000  0.000  0.000  0.058
  3  0.000  0.000  0.000  0.000  0.000  0.000  0.000  0.000  0.000  0.000
  4  0.000  0.000  0.000  0.000  0.000  0.000  0.000  0.000  0.000  0.000
  5  0.000  0.000  0.000  0.000  0.000  0.000  0.000  0.000  0.000  0.000
  6  0.000  0.000  0.000  0.000  0.000  0.000  0.000  0.000  0.000  0.000
  7  0.341  0.000  0.000  0.000  0.000  0.000  0.001  0.000  0.000  0.342
  8  0.344  0.000  0.000  0.000  0.000  0.000  0.001  0.000  0.000  0.345
  9  0.000  0.000  0.000  0.000  0.000  0.000  0.000  0.000  0.000  0.000
tot  0.685  0.000  0.058  0.000  0.000  0.000  0.002  0.000  0.000  0.745
 
band   5 # energy  -13.97299723 # occ.  2.00000000
 
ion      s     py     pz     px    dxy    dyz    dz2    dxz    dx2    tot
  1  0.000  0.000  0.000  0.000  0.000  0.000  0.000  0.000  0.000  0.000
  2  0.000  0.000  0.000  0.000  0.000  0.000  0.000  0.000  0.000  0.000
  3  0.000  0.000  0.000  0.000  0.000  0.000  0.000  0.000  0.000  0.000
  4  0.000  0.000  0.000  0.000  0.000  0.000  0.000  0.000  0.000  0.000
  5  0.320  0.000  0.000  0.000  0.000  0.000  0.000  0.000  0.000  0.320
  6  0.317  0.000  0.000  0.000  0.000  0.000  0.000  0.000  0.000  0.317
  7  0.000  0.000  0.000  0.000  0.000  0.000  0.000  0.000  0.000  0.000
  8  0.000  0.000  0.000  0.000  0.000  0.000  0.000  0.000  0.000  0.000
  9  0.000  0.000  0.074  0.000  0.000  0.000  0.000  0.000  0.000  0.074
tot  0.638  0.000  0.074  0.000  0.000  0.000  0.000  0.000  0.000  0.712
 
band   6 # energy  -13.95293356 # occ.  2.00000000
 
ion      s     py     pz     px    dxy    dyz    dz2    dxz    dx2    tot
  1  0.000  0.000  0.069  0.000  0.000  0.000  0.000  0.000  0.000  0.069
  2  0.000  0.000  0.000  0.000  0.000  0.000  0.000  0.000  0.000  0.000
  3  0.321  0.000  0.000  0.000  0.000  0.000  0.000  0.000  0.000  0.321
  4  0.322  0.000  0.000  0.000  0.000  0.000  0.000  0.000  0.000  0.322
  5  0.000  0.000  0.000  0.000  0.000  0.000  0.000  0.000  0.000  0.000
  6  0.000  0.000  0.000  0.000  0.000  0.000  0.000  0.000  0.000  0.000
  7  0.000  0.000  0.000  0.000  0.000  0.000  0.000  0.000  0.000  0.000
  8  0.000  0.000  0.000  0.000  0.000  0.000  0.000  0.000  0.000  0.000
  9  0.000  0.000  0.000  0.000  0.000  0.000  0.000  0.000  0.000  0.000
tot  0.643  0.000  0.069  0.000  0.000  0.000  0.000  0.000  0.000  0.712
 
band   7 # energy   -6.78460509 # occ.  2.00000000
 
ion      s     py     pz     px    dxy    dyz    dz2    dxz    dx2    tot
  1  0.000  0.000  0.000  0.000  0.000  0.000  0.000  0.000  0.000  0.000
  2  0.000  0.000  0.000  0.000  0.000  0.000  0.000  0.000  0.000  0.000
  3  0.000  0.000  0.000  0.000  0.000  0.000  0.000  0.000  0.000  0.000
  4  0.000  0.000  0.000  0.000  0.000  0.000  0.000  0.000  0.000  0.000
  5  0.022  0.000  0.141  0.000  0.000  0.000  0.000  0.000  0.000  0.163
  6  0.022  0.000  0.143  0.000  0.000  0.000  0.000  0.000  0.000  0.165
  7  0.000  0.000  0.000  0.000  0.000  0.000  0.000  0.000  0.000  0.000
  8  0.000  0.000  0.000  0.000  0.000  0.000  0.000  0.000  0.000  0.000
  9  0.142  0.000  0.000  0.000  0.000  0.000  0.194  0.000  0.000  0.336
tot  0.186  0.000  0.284  0.000  0.000  0.000  0.194  0.000  0.000  0.665
 
band   8 # energy   -6.53918574 # occ.  2.00000000
 
ion      s     py     pz     px    dxy    dyz    dz2    dxz    dx2    tot
  1  0.108  0.000  0.000  0.000  0.000  0.000  0.202  0.000  0.000  0.310
  2  0.000  0.000  0.000  0.000  0.000  0.000  0.000  0.000  0.000  0.000
  3  0.012  0.000  0.155  0.000  0.000  0.000  0.000  0.000  0.000  0.167
  4  0.012  0.000  0.156  0.000  0.000  0.000  0.000  0.000  0.000  0.168
  5  0.000  0.000  0.000  0.000  0.000  0.000  0.000  0.000  0.000  0.000
  6  0.000  0.000  0.000  0.000  0.000  0.000  0.000  0.000  0.000  0.000
  7  0.000  0.000  0.000  0.000  0.000  0.000  0.000  0.000  0.000  0.000
  8  0.000  0.000  0.000  0.000  0.000  0.000  0.000  0.000  0.000  0.000
  9  0.000  0.000  0.000  0.000  0.000  0.000  0.000  0.000  0.000  0.000
tot  0.133  0.000  0.312  0.000  0.000  0.000  0.202  0.000  0.000  0.647
 
band   9 # energy   -6.16169593 # occ.  2.00000000
 
ion      s     py     pz     px    dxy    dyz    dz2    dxz    dx2    tot
  1  0.000  0.000  0.000  0.000  0.000  0.000  0.000  0.000  0.000  0.000
  2  0.162  0.000  0.000  0.000  0.000  0.000  0.143  0.000  0.000  0.304
  3  0.000  0.000  0.000  0.000  0.000  0.000  0.000  0.000  0.000  0.000
  4  0.000  0.000  0.000  0.000  0.000  0.000  0.000  0.000  0.000  0.000
  5  0.000  0.000  0.000  0.000  0.000  0.000  0.000  0.000  0.000  0.000
  6  0.000  0.000  0.000  0.000  0.000  0.000  0.000  0.000  0.000  0.000
  7  0.008  0.000  0.164  0.000  0.000  0.000  0.004  0.000  0.000  0.176
  8  0.008  0.000  0.165  0.000  0.000  0.000  0.004  0.000  0.000  0.176
  9  0.000  0.000  0.000  0.000  0.000  0.000  0.000  0.000  0.000  0.000
tot  0.177  0.000  0.329  0.000  0.000  0.000  0.151  0.000  0.000  0.657
 
band  10 # energy   -3.89841930 # occ.  2.00000000
 
ion      s     py     pz     px    dxy    dyz    dz2    dxz    dx2    tot
  1  0.000  0.009  0.000  0.002  0.104  0.000  0.000  0.000  0.395  0.511
  2  0.000  0.000  0.000  0.000  0.000  0.000  0.000  0.000  0.000  0.000
  3  0.000  0.129  0.000  0.034  0.000  0.000  0.000  0.000  0.000  0.163
  4  0.000  0.135  0.000  0.036  0.000  0.000  0.000  0.000  0.000  0.171
  5  0.000  0.000  0.000  0.000  0.000  0.000  0.000  0.000  0.000  0.000
  6  0.000  0.000  0.000  0.000  0.000  0.000  0.000  0.000  0.000  0.000
  7  0.000  0.000  0.000  0.000  0.000  0.000  0.000  0.000  0.000  0.000
  8  0.000  0.000  0.000  0.000  0.000  0.000  0.000  0.000  0.000  0.000
  9  0.000  0.000  0.000  0.000  0.000  0.000  0.000  0.000  0.000  0.000
tot  0.000  0.273  0.000  0.072  0.104  0.000  0.000  0.000  0.395  0.845
 
band  11 # energy   -3.89832225 # occ.  2.00000000
 
ion      s     py     pz     px    dxy    dyz    dz2    dxz    dx2    tot
  1  0.000  0.002  0.000  0.009  0.395  0.000  0.000  0.000  0.104  0.511
  2  0.000  0.000  0.000  0.000  0.000  0.000  0.000  0.000  0.000  0.000
  3  0.000  0.034  0.000  0.129  0.000  0.000  0.000  0.000  0.000  0.163
  4  0.000  0.036  0.000  0.135  0.000  0.000  0.000  0.000  0.000  0.171
  5  0.000  0.000  0.000  0.000  0.000  0.000  0.000  0.000  0.000  0.000
  6  0.000  0.000  0.000  0.000  0.000  0.000  0.000  0.000  0.000  0.000
  7  0.000  0.000  0.000  0.000  0.000  0.000  0.000  0.000  0.000  0.000
  8  0.000  0.000  0.000  0.000  0.000  0.000  0.000  0.000  0.000  0.000
  9  0.000  0.000  0.000  0.000  0.000  0.000  0.000  0.000  0.000  0.000
tot  0.000  0.072  0.000  0.274  0.395  0.000  0.000  0.000  0.104  0.845
 
band  12 # energy   -3.60408639 # occ.  2.00000000
 
ion      s     py     pz     px    dxy    dyz    dz2    dxz    dx2    tot
  1  0.000  0.000  0.000  0.000  0.000  0.000  0.000  0.000  0.000  0.000
  2  0.000  0.000  0.000  0.000  0.000  0.000  0.000  0.000  0.000  0.000
  3  0.000  0.000  0.000  0.000  0.000  0.000  0.000  0.000  0.000  0.000
  4  0.000  0.000  0.000  0.000  0.000  0.000  0.000  0.000  0.000  0.000
  5  0.000  0.130  0.000  0.038  0.000  0.000  0.000  0.000  0.000  0.169
  6  0.000  0.134  0.000  0.039  0.000  0.000  0.000  0.000  0.000  0.174
  7  0.000  0.000  0.000  0.000  0.000  0.000  0.000  0.000  0.000  0.000
  8  0.000  0.000  0.000  0.000  0.000  0.000  0.000  0.000  0.000  0.000
  9  0.000  0.009  0.000  0.003  0.113  0.000  0.000  0.000  0.385  0.510
tot  0.000  0.274  0.000  0.081  0.113  0.000  0.000  0.000  0.385  0.852
 
band  13 # energy   -3.60397141 # occ.  2.00000000
 
ion      s     py     pz     px    dxy    dyz    dz2    dxz    dx2    tot
  1  0.000  0.000  0.000  0.000  0.000  0.000  0.000  0.000  0.000  0.000
  2  0.000  0.000  0.000  0.000  0.000  0.000  0.000  0.000  0.000  0.000
  3  0.000  0.000  0.000  0.000  0.000  0.000  0.000  0.000  0.000  0.000
  4  0.000  0.000  0.000  0.000  0.000  0.000  0.000  0.000  0.000  0.000
  5  0.000  0.038  0.000  0.130  0.000  0.000  0.000  0.000  0.000  0.168
  6  0.000  0.039  0.000  0.134  0.000  0.000  0.000  0.000  0.000  0.174
  7  0.000  0.000  0.000  0.000  0.000  0.000  0.000  0.000  0.000  0.000
  8  0.000  0.000  0.000  0.000  0.000  0.000  0.000  0.000  0.000  0.000
  9  0.000  0.003  0.000  0.009  0.385  0.000  0.000  0.000  0.113  0.510
tot  0.000  0.081  0.000  0.274  0.385  0.000  0.000  0.000  0.113  0.852
 
band  14 # energy   -2.57818391 # occ.  2.00000000
 
ion      s     py     pz     px    dxy    dyz    dz2    dxz    dx2    tot
  1  0.000  0.000  0.000  0.000  0.000  0.086  0.000  0.328  0.000  0.413
  2  0.000  0.000  0.000  0.000  0.000  0.000  0.000  0.000  0.000  0.000
  3  0.000  0.046  0.000  0.177  0.000  0.000  0.000  0.000  0.000  0.223
  4  0.000  0.045  0.000  0.171  0.000  0.000  0.000  0.000  0.000  0.215
  5  0.000  0.000  0.000  0.000  0.000  0.000  0.000  0.000  0.000  0.000
  6  0.000  0.000  0.000  0.000  0.000  0.000  0.000  0.000  0.000  0.000
  7  0.000  0.000  0.000  0.000  0.000  0.000  0.000  0.000  0.000  0.000
  8  0.000  0.000  0.000  0.000  0.000  0.000  0.000  0.000  0.000  0.000
  9  0.000  0.000  0.000  0.000  0.000  0.000  0.000  0.000  0.000  0.000
tot  0.000  0.091  0.000  0.347  0.000  0.086  0.000  0.328  0.000  0.852
 
band  15 # energy   -2.57784485 # occ.  2.00000000
 
ion      s     py     pz     px    dxy    dyz    dz2    dxz    dx2    tot
  1  0.000  0.000  0.000  0.000  0.000  0.328  0.000  0.086  0.000  0.413
  2  0.000  0.000  0.000  0.000  0.000  0.000  0.000  0.000  0.000  0.000
  3  0.000  0.177  0.000  0.046  0.000  0.000  0.000  0.000  0.000  0.223
  4  0.000  0.171  0.000  0.045  0.000  0.000  0.000  0.000  0.000  0.215
  5  0.000  0.000  0.000  0.000  0.000  0.000  0.000  0.000  0.000  0.000
  6  0.000  0.000  0.000  0.000  0.000  0.000  0.000  0.000  0.000  0.000
  7  0.000  0.000  0.000  0.000  0.000  0.000  0.000  0.000  0.000  0.000
  8  0.000  0.000  0.000  0.000  0.000  0.000  0.000  0.000  0.000  0.000
  9  0.000  0.000  0.000  0.000  0.000  0.000  0.000  0.000  0.000  0.000
tot  0.000  0.348  0.000  0.091  0.000  0.328  0.000  0.086  0.000  0.852
 
band  16 # energy   -2.45966665 # occ.  2.00000000
 
ion      s     py     pz     px    dxy    dyz    dz2    dxz    dx2    tot
  1  0.000  0.000  0.000  0.000  0.000  0.000  0.000  0.000  0.000  0.000
  2  0.000  0.003  0.000  0.006  0.345  0.000  0.000  0.000  0.164  0.518
  3  0.000  0.000  0.000  0.000  0.000  0.000  0.000  0.000  0.000  0.000
  4  0.000  0.000  0.000  0.000  0.000  0.000  0.000  0.000  0.000  0.000
  5  0.000  0.000  0.000  0.000  0.000  0.000  0.000  0.000  0.000  0.000
  6  0.000  0.000  0.000  0.000  0.000  0.000  0.000  0.000  0.000  0.000
  7  0.000  0.055  0.000  0.115  0.000  0.002  0.000  0.005  0.000  0.177
  8  0.000  0.056  0.000  0.118  0.000  0.002  0.000  0.005  0.000  0.182
  9  0.000  0.000  0.000  0.000  0.000  0.000  0.000  0.000  0.000  0.000
tot  0.000  0.114  0.000  0.238  0.346  0.005  0.000  0.010  0.165  0.877
 
band  17 # energy   -2.45964511 # occ.  2.00000000
 
ion      s     py     pz     px    dxy    dyz    dz2    dxz    dx2    tot
  1  0.000  0.000  0.000  0.000  0.000  0.000  0.000  0.000  0.000  0.000
  2  0.000  0.006  0.000  0.003  0.164  0.000  0.000  0.000  0.345  0.518
  3  0.000  0.000  0.000  0.000  0.000  0.000  0.000  0.000  0.000  0.000
  4  0.000  0.000  0.000  0.000  0.000  0.000  0.000  0.000  0.000  0.000
  5  0.000  0.000  0.000  0.000  0.000  0.000  0.000  0.000  0.000  0.000
  6  0.000  0.000  0.000  0.000  0.000  0.000  0.000  0.000  0.000  0.000
  7  0.000  0.115  0.000  0.055  0.000  0.005  0.000  0.002  0.000  0.177
  8  0.000  0.118  0.000  0.056  0.000  0.005  0.000  0.002  0.000  0.182
  9  0.000  0.000  0.000  0.000  0.000  0.000  0.000  0.000  0.000  0.000
tot  0.000  0.238  0.000  0.114  0.165  0.010  0.000  0.005  0.346  0.877
 
band  18 # energy   -2.33816521 # occ.  2.00000000
 
ion      s     py     pz     px    dxy    dyz    dz2    dxz    dx2    tot
  1  0.000  0.000  0.000  0.000  0.000  0.000  0.000  0.000  0.000  0.000
  2  0.000  0.000  0.000  0.000  0.000  0.000  0.000  0.000  0.000  0.000
  3  0.000  0.000  0.000  0.000  0.000  0.000  0.000  0.000  0.000  0.000
  4  0.000  0.000  0.000  0.000  0.000  0.000  0.000  0.000  0.000  0.000
  5  0.000  0.054  0.000  0.179  0.000  0.000  0.000  0.000  0.000  0.233
  6  0.000  0.053  0.000  0.176  0.000  0.000  0.000  0.000  0.000  0.228
  7  0.000  0.000  0.000  0.000  0.000  0.000  0.000  0.000  0.000  0.000
  8  0.000  0.000  0.000  0.000  0.000  0.000  0.000  0.000  0.000  0.000
  9  0.000  0.000  0.000  0.000  0.000  0.089  0.000  0.296  0.000  0.384
tot  0.000  0.106  0.000  0.355  0.000  0.089  0.000  0.296  0.000  0.846
 
band  19 # energy   -2.33772932 # occ.  2.00000000
 
ion      s     py     pz     px    dxy    dyz    dz2    dxz    dx2    tot
  1  0.000  0.000  0.000  0.000  0.000  0.000  0.000  0.000  0.000  0.000
  2  0.000  0.000  0.000  0.000  0.000  0.000  0.000  0.000  0.000  0.000
  3  0.000  0.000  0.000  0.000  0.000  0.000  0.000  0.000  0.000  0.000
  4  0.000  0.000  0.000  0.000  0.000  0.000  0.000  0.000  0.000  0.000
  5  0.000  0.179  0.000  0.054  0.000  0.000  0.000  0.000  0.000  0.233
  6  0.000  0.176  0.000  0.053  0.000  0.000  0.000  0.000  0.000  0.228
  7  0.000  0.000  0.000  0.000  0.000  0.000  0.000  0.000  0.000  0.000
  8  0.000  0.000  0.000  0.000  0.000  0.000  0.000  0.000  0.000  0.000
  9  0.000  0.000  0.000  0.000  0.000  0.296  0.000  0.089  0.000  0.384
tot  0.000  0.355  0.000  0.106  0.000  0.296  0.000  0.089  0.000  0.846
 
band  20 # energy   -2.31496775 # occ.  2.00000000
 
ion      s     py     pz     px    dxy    dyz    dz2    dxz    dx2    tot
  1  0.000  0.000  0.000  0.000  0.000  0.000  0.000  0.000  0.000  0.000
  2  0.000  0.000  0.071  0.000  0.000  0.000  0.000  0.000  0.000  0.071
  3  0.000  0.000  0.000  0.000  0.000  0.000  0.000  0.000  0.000  0.000
  4  0.000  0.000  0.000  0.000  0.000  0.000  0.000  0.000  0.000  0.000
  5  0.000  0.000  0.000  0.000  0.000  0.000  0.000  0.000  0.000  0.000
  6  0.000  0.000  0.000  0.000  0.000  0.000  0.000  0.000  0.000  0.000
  7  0.003  0.000  0.251  0.000  0.000  0.000  0.001  0.000  0.000  0.254
  8  0.003  0.000  0.248  0.000  0.000  0.000  0.001  0.000  0.000  0.252
  9  0.000  0.000  0.000  0.000  0.000  0.000  0.000  0.000  0.000  0.000
tot  0.006  0.000  0.570  0.000  0.000  0.000  0.001  0.000  0.000  0.577
 
band  21 # energy   -2.19570516 # occ.  2.00000000
 
ion      s     py     pz     px    dxy    dyz    dz2    dxz    dx2    tot
  1  0.000  0.000  0.001  0.000  0.000  0.000  0.000  0.000  0.000  0.001
  2  0.000  0.000  0.000  0.000  0.000  0.000  0.000  0.000  0.000  0.000
  3  0.000  0.000  0.004  0.000  0.000  0.000  0.000  0.000  0.000  0.004
  4  0.000  0.000  0.004  0.000  0.000  0.000  0.000  0.000  0.000  0.004
  5  0.002  0.000  0.252  0.000  0.000  0.000  0.000  0.000  0.000  0.253
  6  0.002  0.000  0.250  0.000  0.000  0.000  0.000  0.000  0.000  0.251
  7  0.000  0.000  0.000  0.000  0.000  0.000  0.000  0.000  0.000  0.000
  8  0.000  0.000  0.000  0.000  0.000  0.000  0.000  0.000  0.000  0.000
  9  0.000  0.000  0.062  0.000  0.000  0.000  0.000  0.000  0.000  0.062
tot  0.004  0.000  0.573  0.000  0.000  0.000  0.000  0.000  0.000  0.577
 
band  22 # energy   -1.95886424 # occ.  2.00000000
 
ion      s     py     pz     px    dxy    dyz    dz2    dxz    dx2    tot
  1  0.000  0.000  0.056  0.000  0.000  0.000  0.000  0.000  0.000  0.056
  2  0.000  0.000  0.000  0.000  0.000  0.000  0.000  0.000  0.000  0.000
  3  0.004  0.000  0.254  0.000  0.000  0.000  0.000  0.000  0.000  0.258
  4  0.004  0.000  0.249  0.000  0.000  0.000  0.000  0.000  0.000  0.253
  5  0.000  0.000  0.005  0.000  0.000  0.000  0.000  0.000  0.000  0.005
  6  0.000  0.000  0.005  0.000  0.000  0.000  0.000  0.000  0.000  0.005
  7  0.000  0.000  0.000  0.000  0.000  0.000  0.000  0.000  0.000  0.000
  8  0.000  0.000  0.000  0.000  0.000  0.000  0.000  0.000  0.000  0.000
  9  0.000  0.000  0.001  0.000  0.000  0.000  0.000  0.000  0.000  0.001
tot  0.008  0.000  0.570  0.000  0.000  0.000  0.000  0.000  0.000  0.578
 
band  23 # energy   -1.40360880 # occ.  2.00000000
 
ion      s     py     pz     px    dxy    dyz    dz2    dxz    dx2    tot
  1  0.000  0.000  0.000  0.000  0.000  0.000  0.000  0.000  0.000  0.000
  2  0.000  0.000  0.000  0.000  0.000  0.301  0.000  0.136  0.000  0.438
  3  0.000  0.000  0.000  0.000  0.000  0.000  0.000  0.000  0.000  0.000
  4  0.000  0.000  0.000  0.000  0.000  0.000  0.000  0.000  0.000  0.000
  5  0.000  0.000  0.000  0.000  0.000  0.000  0.000  0.000  0.000  0.000
  6  0.000  0.000  0.000  0.000  0.000  0.000  0.000  0.000  0.000  0.000
  7  0.000  0.155  0.000  0.070  0.002  0.002  0.000  0.001  0.004  0.235
  8  0.000  0.151  0.000  0.069  0.002  0.002  0.000  0.001  0.005  0.230
  9  0.000  0.000  0.000  0.000  0.000  0.000  0.000  0.000  0.000  0.000
tot  0.000  0.307  0.000  0.139  0.004  0.306  0.000  0.138  0.009  0.902
 
band  24 # energy   -1.40353320 # occ.  2.00000000
 
ion      s     py     pz     px    dxy    dyz    dz2    dxz    dx2    tot
  1  0.000  0.000  0.000  0.000  0.000  0.000  0.000  0.000  0.000  0.000
  2  0.000  0.000  0.000  0.000  0.000  0.136  0.000  0.301  0.000  0.438
  3  0.000  0.000  0.000  0.000  0.000  0.000  0.000  0.000  0.000  0.000
  4  0.000  0.000  0.000  0.000  0.000  0.000  0.000  0.000  0.000  0.000
  5  0.000  0.000  0.000  0.000  0.000  0.000  0.000  0.000  0.000  0.000
  6  0.000  0.000  0.000  0.000  0.000  0.000  0.000  0.000  0.000  0.000
  7  0.000  0.070  0.000  0.155  0.004  0.001  0.000  0.002  0.002  0.235
  8  0.000  0.069  0.000  0.151  0.005  0.001  0.000  0.002  0.002  0.230
  9  0.000  0.000  0.000  0.000  0.000  0.000  0.000  0.000  0.000  0.000
tot  0.000  0.139  0.000  0.307  0.009  0.138  0.000  0.306  0.004  0.902
 
band  25 # energy    0.15910247 # occ.  2.00046143
 
ion      s     py     pz     px    dxy    dyz    dz2    dxz    dx2    tot
  1  0.000  0.000  0.000  0.000  0.000  0.000  0.000  0.000  0.000  0.000
  2  0.010  0.000  0.000  0.000  0.000  0.000  0.621  0.000  0.000  0.630
  3  0.000  0.000  0.000  0.000  0.000  0.000  0.000  0.000  0.000  0.000
  4  0.000  0.000  0.000  0.000  0.000  0.000  0.000  0.000  0.000  0.000
  5  0.000  0.000  0.000  0.000  0.000  0.000  0.000  0.000  0.000  0.000
  6  0.000  0.000  0.000  0.000  0.000  0.000  0.000  0.000  0.000  0.000
  7  0.001  0.000  0.046  0.000  0.000  0.000  0.020  0.000  0.000  0.066
  8  0.001  0.000  0.048  0.000  0.000  0.000  0.020  0.000  0.000  0.069
  9  0.000  0.000  0.000  0.000  0.000  0.000  0.000  0.000  0.000  0.000
tot  0.011  0.000  0.094  0.000  0.000  0.000  0.660  0.000  0.000  0.765
 
band  26 # energy    0.51056547 # occ.  2.06257783
 
ion      s     py     pz     px    dxy    dyz    dz2    dxz    dx2    tot
  1  0.013  0.000  0.000  0.000  0.000  0.000  0.299  0.000  0.000  0.311
  2  0.000  0.000  0.000  0.000  0.000  0.000  0.000  0.000  0.000  0.000
  3  0.001  0.000  0.030  0.000  0.000  0.000  0.000  0.000  0.000  0.031
  4  0.001  0.000  0.027  0.000  0.000  0.000  0.000  0.000  0.000  0.028
  5  0.001  0.000  0.024  0.000  0.000  0.000  0.000  0.000  0.000  0.025
  6  0.001  0.000  0.030  0.000  0.000  0.000  0.000  0.000  0.000  0.031
  7  0.000  0.000  0.000  0.000  0.000  0.000  0.000  0.000  0.000  0.000
  8  0.000  0.000  0.000  0.000  0.000  0.000  0.000  0.000  0.000  0.000
  9  0.011  0.000  0.000  0.000  0.000  0.000  0.293  0.000  0.000  0.304
tot  0.027  0.000  0.111  0.000  0.000  0.000  0.592  0.000  0.000  0.730
 
band  27 # energy    0.58054270 # occ.  1.93696074
 
ion      s     py     pz     px    dxy    dyz    dz2    dxz    dx2    tot
  1  0.014  0.000  0.000  0.000  0.000  0.000  0.297  0.000  0.000  0.310
  2  0.000  0.000  0.000  0.000  0.000  0.000  0.000  0.000  0.000  0.000
  3  0.001  0.000  0.026  0.000  0.000  0.000  0.000  0.000  0.000  0.027
  4  0.001  0.000  0.034  0.000  0.000  0.000  0.000  0.000  0.000  0.035
  5  0.001  0.000  0.032  0.000  0.000  0.000  0.000  0.000  0.000  0.033
  6  0.001  0.000  0.027  0.000  0.000  0.000  0.000  0.000  0.000  0.029
  7  0.000  0.000  0.000  0.000  0.000  0.000  0.000  0.000  0.000  0.000
  8  0.000  0.000  0.000  0.000  0.000  0.000  0.000  0.000  0.000  0.000
  9  0.012  0.000  0.000  0.000  0.000  0.000  0.306  0.000  0.000  0.318
tot  0.031  0.000  0.119  0.000  0.000  0.000  0.603  0.000  0.000  0.753
 
band  28 # energy    2.29277846 # occ. -0.00000000
 
ion      s     py     pz     px    dxy    dyz    dz2    dxz    dx2    tot
  1  0.000  0.000  0.000  0.000  0.000  0.357  0.000  0.096  0.000  0.453
  2  0.000  0.000  0.000  0.000  0.000  0.000  0.000  0.000  0.000  0.000
  3  0.000  0.107  0.000  0.029  0.000  0.000  0.000  0.000  0.000  0.135
  4  0.000  0.091  0.000  0.024  0.000  0.000  0.000  0.000  0.000  0.115
  5  0.000  0.000  0.000  0.000  0.000  0.000  0.000  0.000  0.000  0.000
  6  0.000  0.000  0.000  0.000  0.000  0.000  0.000  0.000  0.000  0.000
  7  0.000  0.000  0.000  0.000  0.000  0.000  0.000  0.000  0.000  0.000
  8  0.000  0.000  0.000  0.000  0.000  0.000  0.000  0.000  0.000  0.000
  9  0.000  0.000  0.000  0.000  0.000  0.000  0.000  0.000  0.000  0.000
tot  0.000  0.197  0.000  0.053  0.000  0.357  0.000  0.096  0.000  0.703
 
band  29 # energy    2.29321673 # occ. -0.00000000
 
ion      s     py     pz     px    dxy    dyz    dz2    dxz    dx2    tot
  1  0.000  0.000  0.000  0.000  0.000  0.095  0.000  0.357  0.000  0.453
  2  0.000  0.000  0.000  0.000  0.000  0.000  0.000  0.000  0.000  0.000
  3  0.000  0.029  0.000  0.107  0.000  0.000  0.000  0.000  0.000  0.135
  4  0.000  0.024  0.000  0.091  0.000  0.000  0.000  0.000  0.000  0.115
  5  0.000  0.000  0.000  0.000  0.000  0.000  0.000  0.000  0.000  0.000
  6  0.000  0.000  0.000  0.000  0.000  0.000  0.000  0.000  0.000  0.000
  7  0.000  0.000  0.000  0.000  0.000  0.000  0.000  0.000  0.000  0.000
  8  0.000  0.000  0.000  0.000  0.000  0.000  0.000  0.000  0.000  0.000
  9  0.000  0.000  0.000  0.000  0.000  0.000  0.000  0.000  0.000  0.000
tot  0.000  0.053  0.000  0.197  0.000  0.095  0.000  0.357  0.000  0.703
 
band  30 # energy    2.66781571 # occ. -0.00000000
 
ion      s     py     pz     px    dxy    dyz    dz2    dxz    dx2    tot
  1  0.000  0.000  0.000  0.000  0.000  0.000  0.000  0.000  0.000  0.000
  2  0.000  0.000  0.000  0.000  0.000  0.000  0.000  0.000  0.000  0.000
  3  0.000  0.000  0.000  0.000  0.000  0.000  0.000  0.000  0.000  0.000
  4  0.000  0.000  0.000  0.000  0.000  0.000  0.000  0.000  0.000  0.000
  5  0.000  0.089  0.000  0.026  0.000  0.000  0.000  0.000  0.000  0.115
  6  0.000  0.081  0.000  0.024  0.000  0.000  0.000  0.000  0.000  0.105
  7  0.000  0.000  0.000  0.000  0.000  0.000  0.000  0.000  0.000  0.000
  8  0.000  0.000  0.000  0.000  0.000  0.000  0.000  0.000  0.000  0.000
  9  0.000  0.000  0.000  0.000  0.000  0.366  0.000  0.109  0.000  0.475
tot  0.000  0.170  0.000  0.051  0.000  0.366  0.000  0.109  0.000  0.696
 
band  31 # energy    2.66838387 # occ. -0.00000000
 
ion      s     py     pz     px    dxy    dyz    dz2    dxz    dx2    tot
  1  0.000  0.000  0.000  0.000  0.000  0.000  0.000  0.000  0.000  0.000
  2  0.000  0.000  0.000  0.000  0.000  0.000  0.000  0.000  0.000  0.000
  3  0.000  0.000  0.000  0.000  0.000  0.000  0.000  0.000  0.000  0.000
  4  0.000  0.000  0.000  0.000  0.000  0.000  0.000  0.000  0.000  0.000
  5  0.000  0.026  0.000  0.089  0.000  0.000  0.000  0.000  0.000  0.116
  6  0.000  0.024  0.000  0.081  0.000  0.000  0.000  0.000  0.000  0.105
  7  0.000  0.000  0.000  0.000  0.000  0.000  0.000  0.000  0.000  0.000
  8  0.000  0.000  0.000  0.000  0.000  0.000  0.000  0.000  0.000  0.000
  9  0.000  0.000  0.000  0.000  0.000  0.109  0.000  0.366  0.000  0.475
tot  0.000  0.051  0.000  0.170  0.000  0.109  0.000  0.366  0.000  0.696
 
band  32 # energy    2.81764377 # occ. -0.00000000
 
ion      s     py     pz     px    dxy    dyz    dz2    dxz    dx2    tot
  1  0.000  0.005  0.000  0.018  0.295  0.000  0.000  0.000  0.083  0.402
  2  0.000  0.000  0.000  0.000  0.000  0.000  0.000  0.000  0.000  0.000
  3  0.000  0.038  0.000  0.133  0.000  0.000  0.000  0.000  0.000  0.171
  4  0.000  0.042  0.000  0.149  0.000  0.000  0.000  0.000  0.000  0.191
  5  0.000  0.000  0.000  0.000  0.000  0.000  0.000  0.000  0.000  0.000
  6  0.000  0.000  0.000  0.000  0.000  0.000  0.000  0.000  0.000  0.000
  7  0.000  0.000  0.000  0.000  0.000  0.000  0.000  0.000  0.000  0.000
  8  0.000  0.000  0.000  0.000  0.000  0.000  0.000  0.000  0.000  0.000
  9  0.000  0.000  0.000  0.000  0.000  0.000  0.000  0.000  0.000  0.000
tot  0.000  0.085  0.000  0.300  0.295  0.000  0.000  0.000  0.083  0.764
 
band  33 # energy    2.81781520 # occ. -0.00000000
 
ion      s     py     pz     px    dxy    dyz    dz2    dxz    dx2    tot
  1  0.000  0.018  0.000  0.005  0.083  0.000  0.000  0.000  0.295  0.402
  2  0.000  0.000  0.000  0.000  0.000  0.000  0.000  0.000  0.000  0.000
  3  0.000  0.133  0.000  0.038  0.000  0.000  0.000  0.000  0.000  0.171
  4  0.000  0.149  0.000  0.042  0.000  0.000  0.000  0.000  0.000  0.191
  5  0.000  0.000  0.000  0.000  0.000  0.000  0.000  0.000  0.000  0.000
  6  0.000  0.000  0.000  0.000  0.000  0.000  0.000  0.000  0.000  0.000
  7  0.000  0.000  0.000  0.000  0.000  0.000  0.000  0.000  0.000  0.000
  8  0.000  0.000  0.000  0.000  0.000  0.000  0.000  0.000  0.000  0.000
  9  0.000  0.000  0.000  0.000  0.000  0.000  0.000  0.000  0.000  0.000
tot  0.000  0.300  0.000  0.085  0.083  0.000  0.000  0.000  0.295  0.764
 
band  34 # energy    3.01305304 # occ. -0.00000000
 
ion      s     py     pz     px    dxy    dyz    dz2    dxz    dx2    tot
  1  0.000  0.000  0.000  0.000  0.000  0.000  0.000  0.000  0.000  0.000
  2  0.000  0.000  0.000  0.000  0.000  0.000  0.000  0.000  0.000  0.001
  3  0.000  0.000  0.000  0.000  0.000  0.000  0.000  0.000  0.000  0.000
  4  0.000  0.000  0.000  0.000  0.000  0.000  0.000  0.000  0.000  0.000
  5  0.000  0.039  0.000  0.132  0.000  0.000  0.000  0.000  0.000  0.171
  6  0.000  0.041  0.000  0.139  0.000  0.000  0.000  0.000  0.000  0.181
  7  0.000  0.000  0.000  0.000  0.000  0.000  0.000  0.000  0.000  0.000
  8  0.000  0.000  0.000  0.000  0.000  0.000  0.000  0.000  0.000  0.000
  9  0.000  0.006  0.000  0.019  0.296  0.000  0.000  0.000  0.088  0.408
tot  0.000  0.086  0.000  0.290  0.296  0.000  0.000  0.001  0.088  0.760
 
band  35 # energy    3.01329444 # occ. -0.00000000
 
ion      s     py     pz     px    dxy    dyz    dz2    dxz    dx2    tot
  1  0.000  0.000  0.000  0.000  0.000  0.000  0.000  0.000  0.000  0.000
  2  0.000  0.000  0.000  0.000  0.000  0.000  0.000  0.000  0.000  0.001