<?xml version="1.0" encoding="ISO-8859-1"?>
<modeling>
 <generator>
  <i name="program" type="string">vasp </i>
  <i name="version" type="string">5.4.1  </i>
  <i name="subversion" type="string">24Jun15 (build Nov 28 2018 15:56:34) complex                          parallel </i>
  <i name="platform" type="string">IFC91_ompi </i>
  <i name="date" type="string">2024 05 07 </i>
  <i name="time" type="string">12:10:22 </i>
 </generator>
 <incar>
  <i type="string" name="PREC">accurate</i>
  <i type="int" name="NELM">   120</i>
  <i name="EDIFF">      0.00000100</i>
  <i type="int" name="NBANDS">   388</i>
  <i type="logical" name="LWAVE"> T  </i>
  <i type="logical" name="LORBIT"> F  </i>
  <v type="int" name="KPOINT_BSE">    -1     0     0     0</v>
  <i type="int" name="NELM">   120</i>
 </incar>
 <kpoints>
  <generation param="Gamma">
   <v type="int" name="divisions">       1        1        1 </v>
   <v name="usershift">      0.00000000       0.00000000       0.00000000 </v>
   <v name="genvec1">      1.00000000       0.00000000       0.00000000 </v>
   <v name="genvec2">      0.00000000       1.00000000       0.00000000 </v>
   <v name="genvec3">      0.00000000       0.00000000       1.00000000 </v>
   <v name="shift">      0.00000000       0.00000000       0.00000000 </v>
  </generation>
  <varray name="kpointlist" >
   <v>       0.00000000       0.00000000       0.00000000 </v>
  </varray>
  <varray name="weights" >
   <v>       1.00000000 </v>
  </varray>
 </kpoints>
 <parameters>
  <separator name="general" >
   <i type="string" name="SYSTEM">unknown system</i>
   <i type="logical" name="LCOMPAT"> F  </i>
  </separator>
  <separator name="electronic" >
   <i type="string" name="PREC">accura</i>
   <i name="ENMAX">    258.68900000</i>
   <i name="ENAUG">    446.84200000</i>
   <i name="EDIFF">      0.00000100</i>
   <i type="int" name="IALGO">    38</i>
   <i type="int" name="IWAVPR">    10</i>
   <i type="int" name="NBANDS">   388</i>
   <i name="NELECT">     54.00000000</i>
   <i type="int" name="TURBO">     0</i>
   <i type="int" name="IRESTART">     0</i>
   <i type="int" name="NREBOOT">     0</i>
   <i type="int" name="NMIN">     0</i>
   <i name="EREF">      0.00000000</i>
   <separator name="electronic smearing" >
    <i type="int" name="ISMEAR">     1</i>
    <i name="SIGMA">      0.20000000</i>
    <i name="KSPACING">      0.50000000</i>
    <i type="logical" name="KGAMMA"> T  </i>
   </separator>
   <separator name="electronic projectors" >
    <i type="logical" name="LREAL"> F  </i>
    <v name="ROPT">      0.00000000      0.00000000      0.00000000      0.00000000</v>
    <i type="int" name="LMAXPAW">  -100</i>
    <i type="int" name="LMAXMIX">     2</i>
    <i type="logical" name="NLSPLINE"> F  </i>
   </separator>
   <separator name="electronic startup" >
    <i type="int" name="ISTART">     0</i>
    <i type="int" name="ICHARG">     2</i>
    <i type="int" name="INIWAV">     1</i>
   </separator>
   <separator name="electronic spin" >
    <i type="int" name="ISPIN">     1</i>
    <i type="logical" name="LNONCOLLINEAR"> F  </i>
    <v name="MAGMOM">      1.00000000      1.00000000      1.00000000      1.00000000      1.00000000      1.00000000      1.00000000      1.00000000      1.00000000</v>
    <i name="NUPDOWN">     -1.00000000</i>
    <i type="logical" name="LSORBIT"> F  </i>
    <v name="SAXIS">      0.00000000      0.00000000      1.00000000</v>
    <i type="logical" name="LSPIRAL"> F  </i>
    <v name="QSPIRAL">      0.00000000      0.00000000      0.00000000</v>
    <i type="logical" name="LZEROZ"> F  </i>
   </separator>
   <separator name="electronic exchange-correlation" >
    <i type="logical" name="LASPH"> F  </i>
    <i type="logical" name="LMETAGGA"> F  </i>
   </separator>
   <separator name="electronic convergence" >
    <i type="int" name="NELM">   120</i>
    <i type="int" name="NELMDL">    -5</i>
    <i type="int" name="NELMIN">     2</i>
    <i name="ENINI">    258.68900000</i>
    <separator name="electronic convergence detail" >
     <i type="logical" name="LDIAG"> T  </i>
     <i type="logical" name="LSUBROT"> F  </i>
     <i name="WEIMIN">      0.00000000</i>
     <i name="EBREAK">      0.00000000</i>
     <i name="DEPER">      0.30000000</i>
     <i type="int" name="NRMM">     4</i>
     <i name="TIME">      0.40000000</i>
    </separator>
   </separator>
   <separator name="electronic mixer" >
    <i name="AMIX">      0.40000000</i>
    <i name="BMIX">      1.00000000</i>
    <i name="AMIN">      0.10000000</i>
    <i name="AMIX_MAG">      1.60000000</i>
    <i name="BMIX_MAG">      1.00000000</i>
    <separator name="electronic mixer details" >
     <i type="int" name="IMIX">     4</i>
     <i type="logical" name="MIXFIRST"> F  </i>
     <i type="int" name="MAXMIX">   -45</i>
     <i name="WC">    100.00000000</i>
     <i type="int" name="INIMIX">     1</i>
     <i type="int" name="MIXPRE">     1</i>
     <i type="int" name="MREMOVE">     5</i>
    </separator>
   </separator>
   <separator name="electronic dipolcorrection" >
    <i type="logical" name="LDIPOL"> F  </i>
    <i type="logical" name="LMONO"> F  </i>
    <i type="int" name="IDIPOL">     0</i>
    <i name="EPSILON">      1.00000000</i>
    <v name="DIPOL">   -100.00000000   -100.00000000   -100.00000000</v>
    <i name="EFIELD">      0.00000000</i>
   </separator>
  </separator>
  <separator name="grids" >
   <i type="int" name="NGX">    18</i>
   <i type="int" name="NGY">    18</i>
   <i type="int" name="NGZ">   192</i>
   <i type="int" name="NGXF">    36</i>
   <i type="int" name="NGYF">    36</i>
   <i type="int" name="NGZF">   384</i>
   <i type="logical" name="ADDGRID"> F  </i>
  </separator>
  <separator name="ionic" >
   <i type="int" name="NSW">     0</i>
   <i type="int" name="IBRION">    -1</i>
   <i type="int" name="ISIF">     2</i>
   <i name="PSTRESS">      0.00000000</i>
   <i name="EDIFFG">      0.00001000</i>
   <i type="int" name="NFREE">     0</i>
   <i name="POTIM">      0.50000000</i>
   <i name="SMASS">     -3.00000000</i>
   <i name="SCALEE">      1.00000000</i>
  </separator>
  <separator name="ionic md" >
   <i name="TEBEG">      0.00010000</i>
   <i name="TEEND">      0.00010000</i>
   <i type="int" name="NBLOCK">     1</i>
   <i type="int" name="KBLOCK">     1</i>
   <i type="int" name="NPACO">   256</i>
   <i name="APACO">     16.00000000</i>
  </separator>
  <separator name="symmetry" >
   <i type="int" name="ISYM">     2</i>
   <i name="SYMPREC">      0.00001000</i>
  </separator>
  <separator name="dos" >
   <i type="logical" name="LORBIT"> F  </i>
   <v name="RWIGS">     -1.00000000     -1.00000000     -1.00000000     -1.00000000</v>
   <i type="int" name="NEDOS">   301</i>
   <i name="EMIN">     10.00000000</i>
   <i name="EMAX">    -10.00000000</i>
   <i name="EFERMI">      0.00000000</i>
  </separator>
  <separator name="writing" >
   <i type="int" name="NWRITE">     2</i>
   <i type="logical" name="LWAVE"> T  </i>
   <i type="logical" name="LCHARG"> T  </i>
   <i type="logical" name="LPARD"> F  </i>
   <i type="logical" name="LVTOT"> F  </i>
   <i type="logical" name="LVHAR"> F  </i>
   <i type="logical" name="LELF"> F  </i>
   <i type="logical" name="LOPTICS"> F  </i>
   <v name="STM">      0.00000000      0.00000000      0.00000000      0.00000000      0.00000000      0.00000000      0.00000000</v>
  </separator>
  <separator name="performance" >
   <i type="int" name="NPAR">     1</i>
   <i type="int" name="NSIM">     4</i>
   <i type="int" name="NBLK">    -1</i>
   <i type="logical" name="LPLANE"> T  </i>
   <i type="logical" name="LSCALAPACK"> T  </i>
   <i type="logical" name="LSCAAWARE"> F  </i>
   <i type="logical" name="LSCALU"> F  </i>
   <i type="logical" name="LASYNC"> F  </i>
   <i type="logical" name="LORBITALREAL"> F  </i>
  </separator>
  <separator name="miscellaneous" >
   <i type="int" name="IDIOT">     3</i>
   <i type="logical" name="LMUSIC"> F  </i>
   <v name="POMASS">     95.94000000     32.06600000     78.96000000    183.85000000</v>
   <v name="DARWINR">      0.00000000      0.00000000      0.00000000      0.00000000</v>
   <v name="DARWINV">      1.00000000      1.00000000      1.00000000      1.00000000</v>
   <i type="logical" name="LCORR"> T  </i>
  </separator>
  <i type="logical" name="GGA_COMPAT"> T  </i>
  <i type="logical" name="LBERRY"> F  </i>
  <i type="int" name="ICORELEVEL">     0</i>
  <i type="logical" name="LDAU"> F  </i>
  <i type="int" name="I_CONSTRAINED_M">     0</i>
  <separator name="electronic exchange-correlation" >
   <i type="string" name="GGA">--</i>
   <i type="int" name="VOSKOWN">     0</i>
   <i type="logical" name="LHFCALC"> F  </i>
   <i type="string" name="PRECFOCK"></i>
   <i type="logical" name="LSYMGRAD"> F  </i>
   <i type="logical" name="LHFONE"> F  </i>
   <i type="logical" name="LRHFCALC"> F  </i>
   <i type="logical" name="LTHOMAS"> F  </i>
   <i type="logical" name="LMODELHF"> F  </i>
   <i name="ENCUT4O">     -1.00000000</i>
   <i type="int" name="EXXOEP">     0</i>
   <i type="int" name="FOURORBIT">     0</i>
   <i name="AEXX">      0.00000000</i>
   <i name="HFALPHA">      0.00000000</i>
   <i name="MCALPHA">      0.00000000</i>
   <i name="ALDAX">      1.00000000</i>
   <i name="AGGAX">      1.00000000</i>
   <i name="ALDAC">      1.00000000</i>
   <i name="AGGAC">      1.00000000</i>
   <i type="int" name="NKREDX">     1</i>
   <i type="int" name="NKREDY">     1</i>
   <i type="int" name="NKREDZ">     1</i>
   <i type="logical" name="SHIFTRED"> F  </i>
   <i type="logical" name="ODDONLY"> F  </i>
   <i type="logical" name="EVENONLY"> F  </i>
   <i type="int" name="LMAXFOCK">     0</i>
   <i type="int" name="NMAXFOCKAE">     0</i>
   <i type="logical" name="LFOCKAEDFT"> F  </i>
   <i name="HFSCREEN">      0.00000000</i>
   <i name="HFSCREENC">      0.00000000</i>
   <i type="int" name="NBANDSGWLOW">     0</i>
  </separator>
  <separator name="vdW DFT" >
   <i type="logical" name="LUSE_VDW"> F  </i>
   <i name="Zab_VDW">     -0.84910000</i>
   <i name="PARAM1">      0.12340000</i>
   <i name="PARAM2">      1.00000000</i>
   <i name="PARAM3">      0.00000000</i>
  </separator>
  <separator name="model GW" >
   <i type="int" name="MODEL_GW">     0</i>
   <i name="MODEL_EPS0">     20.49869928</i>
   <i name="MODEL_ALPHA">      1.00000000</i>
  </separator>
  <separator name="linear response parameters" >
   <i type="logical" name="LEPSILON"> F  </i>
   <i type="logical" name="LRPA"> F  </i>
   <i type="logical" name="LNABLA"> F  </i>
   <i type="logical" name="LVEL"> F  </i>
   <i type="int" name="KINTER">     0</i>
   <i name="CSHIFT">      0.10000000</i>
   <i name="OMEGAMAX">     -1.00000000</i>
   <i name="DEG_THRESHOLD">      0.00200000</i>
  </separator>
  <separator name="orbital magnetization" >
   <i type="logical" name="NUCIND"> F  </i>
   <v name="MAGPOS">      0.00000000      0.00000000      0.00000000</v>
   <i type="logical" name="LNICSALL"> T  </i>
   <i type="logical" name="ORBITALMAG"> F  </i>
   <i type="logical" name="LMAGBLOCH"> F  </i>
   <i type="logical" name="LCHIMAG"> F  </i>
   <i type="logical" name="LGAUGE"> T  </i>
   <i type="int" name="MAGATOM">     0</i>
   <v name="MAGDIPOL">      0.00000000      0.00000000      0.00000000</v>
   <v name="AVECCONST">      0.00000000      0.00000000      0.00000000</v>
  </separator>
  <separator name="response functions" >
   <i type="logical" name="LADDER"> F  </i>
   <i type="logical" name="LFXC"> F  </i>
   <i type="logical" name="LHARTREE"> T  </i>
   <i type="int" name="IBSE">     0</i>
   <v type="int" name="KPOINT">    -1     0     0     0</v>
   <i type="logical" name="LTCTE"> F  </i>
   <i type="logical" name="LTETE"> F  </i>
   <i type="logical" name="LTRIPLET"> F  </i>
   <i type="logical" name="LFXCEPS"> F  </i>
   <i type="logical" name="LFXHEG"> F  </i>
   <i type="int" name="NATURALO">     0</i>
   <i type="logical" name="L2ORDER"> F  </i>
   <i type="logical" name="LUSEW"> F  </i>
   <i name="ENCUTGW">     -2.00000000</i>
   <i name="ENCUTGWSOFT">     -2.00000000</i>
   <i name="ENCUTLF">     -1.00000000</i>
   <i type="int" name="LMAXMP2">    -1</i>
   <i name="SCISSOR">      0.00000000</i>
   <i type="int" name="NOMEGA">     0</i>
   <i type="int" name="NOMEGAR">     0</i>
   <i type="int" name="NBANDSGW">    -1</i>
   <i type="int" name="NBANDSO">    -1</i>
   <i type="int" name="NBANDSV">    -1</i>
   <i type="int" name="NELM">   120</i>
   <i type="int" name="NELMHF">     1</i>
   <i type="int" name="DIM">     3</i>
   <i type="int" name="ANTIRES">     0</i>
   <i name="OMEGAMAX">    -30.00000000</i>
   <i name="OMEGAMIN">    -30.00000000</i>
   <i name="OMEGATL">   -200.00000000</i>
   <i type="int" name="OMEGAGRID">     0</i>
   <i name="CSHIFT">     -0.10000000</i>
   <i type="logical" name="SELFENERGY"> F  </i>
   <i type="logical" name="LSPECTRAL"> F  </i>
   <i type="logical" name="LSPECTRALGW"> F  </i>
   <i type="logical" name="LSINGLES"> F  </i>
   <i type="logical" name="LFERMIGW"> F  </i>
   <i type="logical" name="ODDONLYGW"> F  </i>
   <i type="logical" name="EVENONLYGW"> F  </i>
   <i type="int" name="NKREDLFX">     1</i>
   <i type="int" name="NKREDLFY">     1</i>
   <i type="int" name="NKREDLFZ">     1</i>
   <i type="int" name="MAXMEM">  1800</i>
   <i type="int" name="TELESCOPE">     0</i>
   <i type="int" name="TAUPAR">     1</i>
   <i type="int" name="OMEGAPAR">    -1</i>
   <i name="LAMBDA">      1.00000000</i>
  </separator>
  <separator name="External order field" >
   <i name="OFIELD_KAPPA">      0.00000000</i>
   <v name="OFIELD_K">      0.00000000      0.00000000      0.00000000</v>
   <i name="OFIELD_Q6_NEAR">      0.00000000</i>
   <i name="OFIELD_Q6_FAR">      0.00000000</i>
   <i name="OFIELD_A">      0.00000000</i>
  </separator>
 </parameters>
 <atominfo>
  <atoms>       9 </atoms>
  <types>       4 </types>
  <array name="atoms" >
   <dimension dim="1">ion</dimension>
   <field type="string">element</field>
   <field type="int">atomtype</field>
   <set>
    <rc><c>Mo</c><c>   1</c></rc>
    <rc><c>Mo</c><c>   1</c></rc>
    <rc><c>S </c><c>   2</c></rc>
    <rc><c>S </c><c>   2</c></rc>
    <rc><c>S </c><c>   2</c></rc>
    <rc><c>S </c><c>   2</c></rc>
    <rc><c>Se</c><c>   3</c></rc>
    <rc><c>Se</c><c>   3</c></rc>
    <rc><c>W </c><c>   4</c></rc>
   </set>
  </array>
  <array name="atomtypes" >
   <dimension dim="1">type</dimension>
   <field type="int">atomspertype</field>
   <field type="string">element</field>
   <field>mass</field>
   <field>valence</field>
   <field type="string">pseudopotential</field>
   <set>
    <rc><c>   2</c><c>Mo</c><c>     95.94000000</c><c>      6.00000000</c><c>  PAW_PBE Mo 08Apr2002                  </c></rc>
    <rc><c>   4</c><c>S </c><c>     32.06600000</c><c>      6.00000000</c><c>  PAW_PBE S 06Sep2000                   </c></rc>
    <rc><c>   2</c><c>Se</c><c>     78.96000000</c><c>      6.00000000</c><c>  PAW_PBE Se 06Sep2000                  </c></rc>
    <rc><c>   1</c><c>W </c><c>    183.85000000</c><c>      6.00000000</c><c>  PAW_PBE W 08Apr2002                   </c></rc>
   </set>
  </array>
 </atominfo>
 <structure name="initialpos" >
  <crystal>
   <varray name="basis" >
    <v>       3.18500000       0.00000000       0.00000000 </v>
    <v>      -1.59250000       2.75829100       0.00000000 </v>
    <v>       0.00000000       0.00000000      35.00000000 </v>
   </varray>
   <i name="volume">    307.48048922 </i>
   <varray name="rec_basis" >
    <v>       0.31397174       0.18127166       0.00000000 </v>
    <v>       0.00000000       0.36254333       0.00000000 </v>
    <v>       0.00000000       0.00000000       0.02857143 </v>
   </varray>
  </crystal>
  <varray name="positions" >
   <v>       0.64217973       0.36110163       0.20381795 </v>
   <v>       0.67295760       0.32335296       0.80905281 </v>
   <v>       0.97550397       0.02776841       0.16347535 </v>
   <v>       0.97551172       0.02778320       0.24395995 </v>
   <v>       0.67602776       0.32562660       0.40051633 </v>
   <v>       0.67604990       0.32560907       0.48392908 </v>
   <v>       0.00629245       0.99002344       0.76452782 </v>
   <v>       0.00629335       0.99001344       0.85344193 </v>
   <v>       0.00936429       0.99229376       0.44227026 </v>
  </varray>
 </structure>
 <calculation>
  <scstep>
   <time name="dav">   87.62    4.39</time>
   <time name="total">   92.79    4.65</time>
   <energy>
    <i name="alphaZ">     99.60307510 </i>
    <i name="ewald">   2862.10097504 </i>
    <i name="hartreedc">  -5091.03038932 </i>
    <i name="XCdc">   -119.41640827 </i>
    <i name="pawpsdc">   2063.56787816 </i>
    <i name="pawaedc">  -1821.78880493 </i>
    <i name="eentropy">      0.02548565 </i>
    <i name="bandstr">    -19.37224899 </i>
    <i name="atom">   2261.01001458 </i>
    <i name="e_fr_energy">    234.69957702 </i>
    <i name="e_wo_entrp">    234.67409137 </i>
    <i name="e_0_energy">    234.69108180 </i>
   </energy>
  </scstep>
  <scstep>
   <time name="dav">   98.63    4.95</time>
   <time name="total">   98.66    4.95</time>
   <energy>
    <i name="e_fr_energy">    -35.42818266 </i>
    <i name="e_wo_entrp">    -35.45287888 </i>
    <i name="e_0_energy">    -35.43641473 </i>
   </energy>
  </scstep>
  <scstep>
   <time name="dav">   97.21    4.88</time>
   <time name="total">   97.24    4.88</time>
   <energy>
    <i name="e_fr_energy">    -46.54310781 </i>
    <i name="e_wo_entrp">    -46.56813511 </i>
    <i name="e_0_energy">    -46.55145024 </i>
   </energy>
  </scstep>
  <scstep>
   <time name="dav">   96.87    4.86</time>
   <time name="total">   96.91    4.86</time>
   <energy>
    <i name="e_fr_energy">    -46.56801152 </i>
    <i name="e_wo_entrp">    -46.59303505 </i>
    <i name="e_0_energy">    -46.57635270 </i>
   </energy>
  </scstep>
  <scstep>
   <time name="dav">   94.12    4.72</time>
   <time name="total">   96.30    4.83</time>
   <energy>
    <i name="e_fr_energy">    -46.56806183 </i>
    <i name="e_wo_entrp">    -46.59308535 </i>
    <i name="e_0_energy">    -46.57640301 </i>
   </energy>
  </scstep>
  <scstep>
   <time name="dav">   92.65    4.66</time>
   <time name="total">   97.78    4.99</time>
   <energy>
    <i name="e_fr_energy">    -43.38517117 </i>
    <i name="e_wo_entrp">    -43.39985282 </i>
    <i name="e_0_energy">    -43.39006505 </i>
   </energy>
  </scstep>
  <scstep>
   <time name="dav">   93.81    4.72</time>
   <time name="total">   99.45    5.04</time>
   <energy>
    <i name="e_fr_energy">    -46.85261523 </i>
    <i name="e_wo_entrp">    -46.87820572 </i>
    <i name="e_0_energy">    -46.86114539 </i>
   </energy>
  </scstep>
  <scstep>
   <time name="dav">   92.79    4.67</time>
   <time name="total">   97.51    4.99</time>
   <energy>
    <i name="e_fr_energy">    -41.95662578 </i>
    <i name="e_wo_entrp">    -41.96840095 </i>
    <i name="e_0_energy">    -41.96055084 </i>
   </energy>
  </scstep>
  <scstep>
   <time name="dav">   94.25    4.74</time>
   <time name="total">   99.24    5.06</time>
   <energy>
    <i name="e_fr_energy">    -41.95004989 </i>
    <i name="e_wo_entrp">    -41.96700732 </i>
    <i name="e_0_energy">    -41.95570237 </i>
   </energy>
  </scstep>
  <scstep>
   <time name="dav">   96.30    4.83</time>
   <time name="total">  102.89    5.16</time>
   <energy>
    <i name="e_fr_energy">    -41.93777801 </i>
    <i name="e_wo_entrp">    -41.96378523 </i>
    <i name="e_0_energy">    -41.94644708 </i>
   </energy>
  </scstep>
  <scstep>
   <time name="dav">   95.46    4.80</time>
   <time name="total">  100.09    5.12</time>
   <energy>
    <i name="e_fr_energy">    -41.94684137 </i>
    <i name="e_wo_entrp">    -41.95915920 </i>
    <i name="e_0_energy">    -41.95094732 </i>
   </energy>
  </scstep>
  <scstep>
   <time name="dav">   94.48    4.76</time>
   <time name="total">  100.90    5.09</time>
   <energy>
    <i name="e_fr_energy">    -41.94251518 </i>
    <i name="e_wo_entrp">    -41.95719576 </i>
    <i name="e_0_energy">    -41.94740871 </i>
   </energy>
  </scstep>
  <scstep>
   <time name="dav">   94.87    4.77</time>
   <time name="total">   99.62    5.09</time>
   <energy>
    <i name="e_fr_energy">    -41.93967308 </i>
    <i name="e_wo_entrp">    -41.96377132 </i>
    <i name="e_0_energy">    -41.94770583 </i>
   </energy>
  </scstep>
  <scstep>
   <time name="dav">   92.80    4.66</time>
   <time name="total">   99.57    5.00</time>
   <energy>
    <i name="e_fr_energy">    -41.93986192 </i>
    <i name="e_wo_entrp">    -41.96328542 </i>
    <i name="e_0_energy">    -41.94766975 </i>
   </energy>
  </scstep>
  <scstep>
   <time name="dav">   97.07    4.88</time>
   <time name="total">  103.82    5.22</time>
   <energy>
    <i name="e_fr_energy">    -41.93970489 </i>
    <i name="e_wo_entrp">    -41.96343235 </i>
    <i name="e_0_energy">    -41.94761404 </i>
   </energy>
  </scstep>
  <scstep>
   <time name="dav">   94.71    4.76</time>
   <time name="total">  101.16    5.10</time>
   <energy>
    <i name="e_fr_energy">    -41.94036539 </i>
    <i name="e_wo_entrp">    -41.96316803 </i>
    <i name="e_0_energy">    -41.94796627 </i>
   </energy>
  </scstep>
  <scstep>
   <time name="dav">   95.66    4.81</time>
   <time name="total">  100.32    5.13</time>
   <energy>
    <i name="e_fr_energy">    -41.94015363 </i>
    <i name="e_wo_entrp">    -41.96183212 </i>
    <i name="e_0_energy">    -41.94737980 </i>
   </energy>
  </scstep>
  <scstep>
   <time name="dav">   93.61    4.71</time>
   <time name="total">   99.61    5.05</time>
   <energy>
    <i name="e_fr_energy">    -41.94005030 </i>
    <i name="e_wo_entrp">    -41.96188966 </i>
    <i name="e_0_energy">    -41.94733008 </i>
   </energy>
  </scstep>
  <scstep>
   <time name="dav">   94.11    4.73</time>
   <time name="total">   99.13    5.06</time>
   <energy>
    <i name="e_fr_energy">    -41.94221834 </i>
    <i name="e_wo_entrp">    -41.95753409 </i>
    <i name="e_0_energy">    -41.94732359 </i>
   </energy>
  </scstep>
  <scstep>
   <time name="dav">   95.07    4.77</time>
   <time name="total">  101.84    5.11</time>
   <energy>
    <i name="e_fr_energy">    -41.94350503 </i>
    <i name="e_wo_entrp">    -41.95667431 </i>
    <i name="e_0_energy">    -41.94789479 </i>
   </energy>
  </scstep>
  <scstep>
   <time name="dav">   95.84    4.82</time>
   <time name="total">  101.45    5.15</time>
   <energy>
    <i name="e_fr_energy">    -41.94407945 </i>
    <i name="e_wo_entrp">    -41.95693536 </i>
    <i name="e_0_energy">    -41.94836475 </i>
   </energy>
  </scstep>
  <scstep>
   <time name="dav">   94.96    4.78</time>
   <time name="total">  101.63    5.11</time>
   <energy>
    <i name="e_fr_energy">    -41.94439346 </i>
    <i name="e_wo_entrp">    -41.95712933 </i>
    <i name="e_0_energy">    -41.94863875 </i>
   </energy>
  </scstep>
  <scstep>
   <time name="dav">   94.96    4.77</time>
   <time name="total">   99.45    5.09</time>
   <energy>
    <i name="e_fr_energy">    -41.94613568 </i>
    <i name="e_wo_entrp">    -41.95854698 </i>
    <i name="e_0_energy">    -41.95027278 </i>
   </energy>
  </scstep>
  <scstep>
   <time name="dav">   96.48    4.85</time>
   <time name="total">  103.06    5.19</time>
   <energy>
    <i name="e_fr_energy">    -41.94714048 </i>
    <i name="e_wo_entrp">    -41.95962323 </i>
    <i name="e_0_energy">    -41.95130140 </i>
   </energy>
  </scstep>
  <scstep>
   <time name="dav">   95.64    4.81</time>
   <time name="total">  102.41    5.15</time>
   <energy>
    <i name="e_fr_energy">    -41.95100664 </i>
    <i name="e_wo_entrp">    -41.96438134 </i>
    <i name="e_0_energy">    -41.95546487 </i>
   </energy>
  </scstep>
  <scstep>
   <time name="dav">   97.82    4.91</time>
   <time name="total">  104.62    5.26</time>
   <energy>
    <i name="e_fr_energy">    -41.95460573 </i>
    <i name="e_wo_entrp">    -41.96932125 </i>
    <i name="e_0_energy">    -41.95951090 </i>
   </energy>
  </scstep>
  <scstep>
   <time name="dav">   95.85    4.82</time>
   <time name="total">  102.68    5.16</time>
   <energy>
    <i name="e_fr_energy">    -41.95597224 </i>
    <i name="e_wo_entrp">    -41.97084714 </i>
    <i name="e_0_energy">    -41.96093054 </i>
   </energy>
  </scstep>
  <scstep>
   <time name="dav">   93.12    4.67</time>
   <time name="total">   99.87    5.01</time>
   <energy>
    <i name="e_fr_energy">    -41.94941478 </i>
    <i name="e_wo_entrp">    -41.96303654 </i>
    <i name="e_0_energy">    -41.95395537 </i>
   </energy>
  </scstep>
  <scstep>
   <time name="dav">   96.42    4.84</time>
   <time name="total">  103.20    5.18</time>
   <energy>
    <i name="e_fr_energy">    -41.94627833 </i>
    <i name="e_wo_entrp">    -41.95998312 </i>
    <i name="e_0_energy">    -41.95084660 </i>
   </energy>
  </scstep>
  <scstep>
   <time name="dav">   98.69    4.96</time>
   <time name="total">  103.04    5.29</time>
   <energy>
    <i name="e_fr_energy">    -41.94193765 </i>
    <i name="e_wo_entrp">    -41.96089185 </i>
    <i name="e_0_energy">    -41.94825572 </i>
   </energy>
  </scstep>
  <scstep>
   <time name="dav">  102.83    5.17</time>
   <time name="total">  109.33    5.53</time>
   <energy>
    <i name="e_fr_energy">    -41.93868204 </i>
    <i name="e_wo_entrp">    -41.96358084 </i>
    <i name="e_0_energy">    -41.94698164 </i>
   </energy>
  </scstep>
  <scstep>
   <time name="dav">   93.39    4.68</time>
   <time name="total">  100.54    5.04</time>
   <energy>
    <i name="e_fr_energy">    -41.93424286 </i>
    <i name="e_wo_entrp">    -41.95975604 </i>
    <i name="e_0_energy">    -41.94274725 </i>
   </energy>
  </scstep>
  <scstep>
   <time name="dav">   90.21    4.54</time>
   <time name="total">   97.35    4.90</time>
   <energy>
    <i name="e_fr_energy">    -41.93431999 </i>
    <i name="e_wo_entrp">    -41.95965661 </i>
    <i name="e_0_energy">    -41.94276553 </i>
   </energy>
  </scstep>
  <scstep>
   <time name="dav">   91.19    4.58</time>
   <time name="total">   96.54    4.93</time>
   <energy>
    <i name="e_fr_energy">    -41.93479927 </i>
    <i name="e_wo_entrp">    -41.96037735 </i>
    <i name="e_0_energy">    -41.94332530 </i>
   </energy>
  </scstep>
  <scstep>
   <time name="dav">   92.39    4.65</time>
   <time name="total">   99.17    5.00</time>
   <energy>
    <i name="e_fr_energy">    -41.93579253 </i>
    <i name="e_wo_entrp">    -41.96147376 </i>
    <i name="e_0_energy">    -41.94435294 </i>
   </energy>
  </scstep>
  <scstep>
   <time name="dav">   90.71    4.56</time>
   <time name="total">   97.57    4.92</time>
   <energy>
    <i name="e_fr_energy">    -41.93472355 </i>
    <i name="e_wo_entrp">    -41.95996093 </i>
    <i name="e_0_energy">    -41.94313601 </i>
   </energy>
  </scstep>
  <scstep>
   <time name="dav">   91.19    4.58</time>
   <time name="total">   95.84    4.93</time>
   <energy>
    <i name="e_fr_energy">    -41.93482270 </i>
    <i name="e_wo_entrp">    -41.95996927 </i>
    <i name="e_0_energy">    -41.94320489 </i>
   </energy>
  </scstep>
  <scstep>
   <time name="dav">   92.68    4.66</time>
   <time name="total">   98.78    5.01</time>
   <energy>
    <i name="e_fr_energy">    -41.93490564 </i>
    <i name="e_wo_entrp">    -41.96005244 </i>
    <i name="e_0_energy">    -41.94328790 </i>
   </energy>
  </scstep>
  <scstep>
   <time name="dav">   93.93    4.73</time>
   <time name="total">   99.86    5.08</time>
   <energy>
    <i name="e_fr_energy">    -41.93469801 </i>
    <i name="e_wo_entrp">    -41.95989612 </i>
    <i name="e_0_energy">    -41.94309738 </i>
   </energy>
  </scstep>
  <scstep>
   <time name="dav">   95.47    4.80</time>
   <time name="total">  100.01    5.14</time>
   <energy>
    <i name="e_fr_energy">    -41.93429600 </i>
    <i name="e_wo_entrp">    -41.95978566 </i>
    <i name="e_0_energy">    -41.94279255 </i>
   </energy>
  </scstep>
  <scstep>
   <time name="dav">   93.28    4.69</time>
   <time name="total">   99.06    5.04</time>
   <energy>
    <i name="e_fr_energy">    -41.93387869 </i>
    <i name="e_wo_entrp">    -41.95988255 </i>
    <i name="e_0_energy">    -41.94254664 </i>
   </energy>
  </scstep>
  <scstep>
   <time name="dav">   93.87    4.72</time>
   <time name="total">   98.78    5.07</time>
   <energy>
    <i name="e_fr_energy">    -41.93363538 </i>
    <i name="e_wo_entrp">    -41.96077316 </i>
    <i name="e_0_energy">    -41.94268130 </i>
   </energy>
  </scstep>
  <scstep>
   <time name="dav">   96.22    4.84</time>
   <time name="total">  103.50    5.20</time>
   <energy>
    <i name="e_fr_energy">    -41.93436851 </i>
    <i name="e_wo_entrp">    -41.95961618 </i>
    <i name="e_0_energy">    -41.94278440 </i>
   </energy>
  </scstep>
  <scstep>
   <time name="dav">   94.46    4.75</time>
   <time name="total">  101.81    5.11</time>
   <energy>
    <i name="e_fr_energy">    -41.93499497 </i>
    <i name="e_wo_entrp">    -41.96024351 </i>
    <i name="e_0_energy">    -41.94341115 </i>
   </energy>
  </scstep>
  <scstep>
   <time name="dav">   92.52    4.65</time>
   <time name="total">   97.98    5.02</time>
   <energy>
    <i name="e_fr_energy">    -41.93531730 </i>
    <i name="e_wo_entrp">    -41.96047813 </i>
    <i name="e_0_energy">    -41.94370425 </i>
   </energy>
  </scstep>
  <scstep>
   <time name="dav">   94.02    4.73</time>
   <time name="total">   99.13    5.08</time>
   <energy>
    <i name="e_fr_energy">    -41.93570799 </i>
    <i name="e_wo_entrp">    -41.96085739 </i>
    <i name="e_0_energy">    -41.94409112 </i>
   </energy>
  </scstep>
  <scstep>
   <time name="dav">   91.27    4.59</time>
   <time name="total">   98.81    4.97</time>
   <energy>
    <i name="e_fr_energy">    -41.93579422 </i>
    <i name="e_wo_entrp">    -41.96094257 </i>
    <i name="e_0_energy">    -41.94417700 </i>
   </energy>
  </scstep>
  <scstep>
   <time name="dav">   93.87    4.72</time>
   <time name="total">   98.17    5.07</time>
   <energy>
    <i name="e_fr_energy">    -41.93579861 </i>
    <i name="e_wo_entrp">    -41.96094978 </i>
    <i name="e_0_energy">    -41.94418234 </i>
   </energy>
  </scstep>
  <scstep>
   <time name="dav">   90.48    4.55</time>
   <time name="total">   97.31    4.93</time>
   <energy>
    <i name="e_fr_energy">    -41.93583131 </i>
    <i name="e_wo_entrp">    -41.96098124 </i>
    <i name="e_0_energy">    -41.94421462 </i>
   </energy>
  </scstep>
  <scstep>
   <time name="dav">   98.26    4.94</time>
   <time name="total">  102.60    5.30</time>
   <energy>
    <i name="e_fr_energy">    -41.93593936 </i>
    <i name="e_wo_entrp">    -41.96108514 </i>
    <i name="e_0_energy">    -41.94432128 </i>
   </energy>
  </scstep>
  <scstep>
   <time name="dav">   92.40    4.65</time>
   <time name="total">   98.71    5.02</time>
   <energy>
    <i name="e_fr_energy">    -41.93584369 </i>
    <i name="e_wo_entrp">    -41.96101434 </i>
    <i name="e_0_energy">    -41.94423391 </i>
   </energy>
  </scstep>
  <scstep>
   <time name="dav">   93.89    4.72</time>
   <time name="total">   99.95    5.09</time>
   <energy>
    <i name="e_fr_energy">    -41.93543971 </i>
    <i name="e_wo_entrp">    -41.96058575 </i>
    <i name="e_0_energy">    -41.94382172 </i>
   </energy>
  </scstep>
  <scstep>
   <time name="dav">   92.74    4.66</time>
   <time name="total">   97.02    5.01</time>
   <energy>
    <i name="e_fr_energy">    -41.93503149 </i>
    <i name="e_wo_entrp">    -41.96017745 </i>
    <i name="e_0_energy">    -41.94341348 </i>
   </energy>
  </scstep>
  <scstep>
   <time name="dav">  106.77    5.37</time>
   <time name="total">  110.97    5.72</time>
   <energy>
    <i name="e_fr_energy">    -41.93415242 </i>
    <i name="e_wo_entrp">    -41.95955824 </i>
    <i name="e_0_energy">    -41.94262103 </i>
   </energy>
  </scstep>
  <scstep>
   <time name="dav">   99.83    5.02</time>
   <time name="total">  105.55    5.39</time>
   <energy>
    <i name="e_fr_energy">    -41.93141133 </i>
    <i name="e_wo_entrp">    -41.96610575 </i>
    <i name="e_0_energy">    -41.94297613 </i>
   </energy>
  </scstep>
  <scstep>
   <time name="dav">   93.55    4.70</time>
   <time name="total">   99.56    5.07</time>
   <energy>
    <i name="e_fr_energy">    -41.92803566 </i>
    <i name="e_wo_entrp">    -41.96725113 </i>
    <i name="e_0_energy">    -41.94110748 </i>
   </energy>
  </scstep>
  <scstep>
   <time name="dav">   90.21    4.54</time>
   <time name="total">   94.74    4.88</time>
   <energy>
    <i name="e_fr_energy">    -41.92683498 </i>
    <i name="e_wo_entrp">    -41.96644958 </i>
    <i name="e_0_energy">    -41.94003984 </i>
   </energy>
  </scstep>
  <scstep>
   <time name="dav">   96.70    4.86</time>
   <time name="total">  103.62    5.23</time>
   <energy>
    <i name="e_fr_energy">    -41.92522706 </i>
    <i name="e_wo_entrp">    -41.96480316 </i>
    <i name="e_0_energy">    -41.93841909 </i>
   </energy>
  </scstep>
  <scstep>
   <time name="dav">  104.67    5.26</time>
   <time name="total">  111.13    5.62</time>
   <energy>
    <i name="e_fr_energy">    -41.92184510 </i>
    <i name="e_wo_entrp">    -41.95862104 </i>
    <i name="e_0_energy">    -41.93410374 </i>
   </energy>
  </scstep>
  <scstep>
   <time name="dav">   92.23    4.64</time>
   <time name="total">   98.20    4.99</time>
   <energy>
    <i name="e_fr_energy">    -41.92525859 </i>
    <i name="e_wo_entrp">    -41.96475527 </i>
    <i name="e_0_energy">    -41.93842415 </i>
   </energy>
  </scstep>
  <scstep>
   <time name="dav">   89.27    4.49</time>
   <time name="total">   95.47    4.84</time>
   <energy>
    <i name="e_fr_energy">    -41.92244794 </i>
    <i name="e_wo_entrp">    -41.96006703 </i>
    <i name="e_0_energy">    -41.93498763 </i>
   </energy>
  </scstep>
  <scstep>
   <time name="dav">   89.81    4.52</time>
   <time name="total">   95.29    4.87</time>
   <energy>
    <i name="e_fr_energy">    -41.92232497 </i>
    <i name="e_wo_entrp">    -41.95959763 </i>
    <i name="e_0_energy">    -41.93474919 </i>
   </energy>
  </scstep>
  <scstep>
   <time name="dav">   93.08    4.67</time>
   <time name="total">  100.14    5.03</time>
   <energy>
    <i name="e_fr_energy">    -41.92348927 </i>
    <i name="e_wo_entrp">    -41.96197870 </i>
    <i name="e_0_energy">    -41.93631908 </i>
   </energy>
  </scstep>
  <scstep>
   <time name="dav">   88.59    4.45</time>
   <time name="total">   95.82    4.81</time>
   <energy>
    <i name="e_fr_energy">    -41.92359447 </i>
    <i name="e_wo_entrp">    -41.96224333 </i>
    <i name="e_0_energy">    -41.93647743 </i>
   </energy>
  </scstep>
  <scstep>
   <time name="dav">   93.89    4.72</time>
   <time name="total">  101.10    5.08</time>
   <energy>
    <i name="e_fr_energy">    -41.92265065 </i>
    <i name="e_wo_entrp">    -41.96047871 </i>
    <i name="e_0_energy">    -41.93526000 </i>
   </energy>
  </scstep>
  <scstep>
   <time name="dav">   92.26    4.64</time>
   <time name="total">   97.92    4.99</time>
   <energy>
    <i name="e_fr_energy">    -41.92225259 </i>
    <i name="e_wo_entrp">    -41.95948737 </i>
    <i name="e_0_energy">    -41.93466418 </i>
   </energy>
  </scstep>
  <scstep>
   <time name="dav">   91.89    4.63</time>
   <time name="total">   97.81    4.98</time>
   <energy>
    <i name="e_fr_energy">    -41.92213500 </i>
    <i name="e_wo_entrp">    -41.95888953 </i>
    <i name="e_0_energy">    -41.93438651 </i>
   </energy>
  </scstep>
  <scstep>
   <time name="dav">   89.69    4.51</time>
   <time name="total">   95.95    4.87</time>
   <energy>
    <i name="e_fr_energy">    -41.92220868 </i>
    <i name="e_wo_entrp">    -41.95913785 </i>
    <i name="e_0_energy">    -41.93451840 </i>
   </energy>
  </scstep>
  <scstep>
   <time name="dav">   92.28    4.64</time>
   <time name="total">   97.30    4.99</time>
   <energy>
    <i name="e_fr_energy">    -41.92249392 </i>
    <i name="e_wo_entrp">    -41.95914144 </i>
    <i name="e_0_energy">    -41.93470976 </i>
   </energy>
  </scstep>
  <scstep>
   <time name="dav">   89.71    4.51</time>
   <time name="total">   95.00    4.86</time>
   <energy>
    <i name="e_fr_energy">    -41.92229908 </i>
    <i name="e_wo_entrp">    -41.95891547 </i>
    <i name="e_0_energy">    -41.93450454 </i>
   </energy>
  </scstep>
  <scstep>
   <time name="dav">   97.88    4.92</time>
   <time name="total">  102.26    5.27</time>
   <energy>
    <i name="e_fr_energy">    -41.92680448 </i>
    <i name="e_wo_entrp">    -41.96555548 </i>
    <i name="e_0_energy">    -41.93972148 </i>
   </energy>
  </scstep>
  <scstep>
   <time name="dav">   92.54    4.65</time>
   <time name="total">   99.21    5.01</time>
   <energy>
    <i name="e_fr_energy">    -41.92176342 </i>
    <i name="e_wo_entrp">    -41.95879478 </i>
    <i name="e_0_energy">    -41.93410721 </i>
   </energy>
  </scstep>
  <scstep>
   <time name="dav">   92.68    4.66</time>
   <time name="total">   99.44    5.03</time>
   <energy>
    <i name="e_fr_energy">    -41.93731946 </i>
    <i name="e_wo_entrp">    -41.97129123 </i>
    <i name="e_0_energy">    -41.94864338 </i>
   </energy>
  </scstep>
  <scstep>
   <time name="dav">   94.29    4.74</time>
   <time name="total">  100.59    5.10</time>
   <energy>
    <i name="e_fr_energy">    -41.92994936 </i>
    <i name="e_wo_entrp">    -41.96687522 </i>
    <i name="e_0_energy">    -41.94225798 </i>
   </energy>
  </scstep>
  <scstep>
   <time name="dav">   93.35    4.70</time>
   <time name="total">   97.63    5.04</time>
   <energy>
    <i name="e_fr_energy">    -41.93899235 </i>
    <i name="e_wo_entrp">    -41.96946490 </i>
    <i name="e_0_energy">    -41.94914986 </i>
   </energy>
  </scstep>
  <scstep>
   <time name="dav">   91.51    4.60</time>
   <time name="total">   98.66    4.96</time>
   <energy>
    <i name="e_fr_energy">    -41.92336560 </i>
    <i name="e_wo_entrp">    -41.96185302 </i>
    <i name="e_0_energy">    -41.93619474 </i>
   </energy>
  </scstep>
  <scstep>
   <time name="dav">   90.59    4.54</time>
   <time name="total">   97.99    4.91</time>
   <energy>
    <i name="e_fr_energy">    -41.92694067 </i>
    <i name="e_wo_entrp">    -41.96572893 </i>
    <i name="e_0_energy">    -41.93987009 </i>
   </energy>
  </scstep>
  <scstep>
   <time name="dav">   88.33    4.44</time>
   <time name="total">   94.16    4.79</time>
   <energy>
    <i name="e_fr_energy">    -41.92210358 </i>
    <i name="e_wo_entrp">    -41.95873979 </i>
    <i name="e_0_energy">    -41.93431565 </i>
   </energy>
  </scstep>
  <scstep>
   <time name="dav">   93.32    4.70</time>
   <time name="total">   99.56    5.06</time>
   <energy>
    <i name="e_fr_energy">    -41.93159605 </i>
    <i name="e_wo_entrp">    -41.97078672 </i>
    <i name="e_0_energy">    -41.94465961 </i>
   </energy>
  </scstep>
  <scstep>
   <time name="dav">   92.82    4.67</time>
   <time name="total">   97.70    5.01</time>
   <energy>
    <i name="e_fr_energy">    -41.92140054 </i>
    <i name="e_wo_entrp">    -41.95807549 </i>
    <i name="e_0_energy">    -41.93362552 </i>
   </energy>
  </scstep>
  <scstep>
   <time name="dav">   89.88    4.52</time>
   <time name="total">   94.81    4.87</time>
   <energy>
    <i name="e_fr_energy">    -41.92636378 </i>
    <i name="e_wo_entrp">    -41.96495015 </i>
    <i name="e_0_energy">    -41.93922590 </i>
   </energy>
  </scstep>
  <scstep>
   <time name="dav">   90.36    4.54</time>
   <time name="total">   97.56    4.90</time>
   <energy>
    <i name="e_fr_energy">    -41.92174506 </i>
    <i name="e_wo_entrp">    -41.95876051 </i>
    <i name="e_0_energy">    -41.93408354 </i>
   </energy>
  </scstep>
  <scstep>
   <time name="dav">   88.62    4.46</time>
   <time name="total">   93.97    4.81</time>
   <energy>
    <i name="e_fr_energy">    -41.92256221 </i>
    <i name="e_wo_entrp">    -41.95922640 </i>
    <i name="e_0_energy">    -41.93478361 </i>
   </energy>
  </scstep>
  <scstep>
   <time name="dav">   93.37    4.69</time>
   <time name="total">   98.56    5.04</time>
   <energy>
    <i name="e_fr_energy">    -41.92451344 </i>
    <i name="e_wo_entrp">    -41.96370228 </i>
    <i name="e_0_energy">    -41.93757638 </i>
   </energy>
  </scstep>
  <scstep>
   <time name="dav">   89.37    4.49</time>
   <time name="total">   93.98    4.85</time>
   <energy>
    <i name="e_fr_energy">    -41.92814598 </i>
    <i name="e_wo_entrp">    -41.96724703 </i>
    <i name="e_0_energy">    -41.94117966 </i>
   </energy>
  </scstep>
  <scstep>
   <time name="dav">   96.18    4.83</time>
   <time name="total">  103.61    5.20</time>
   <energy>
    <i name="e_fr_energy">    -41.92986509 </i>
    <i name="e_wo_entrp">    -41.96696643 </i>
    <i name="e_0_energy">    -41.94223221 </i>
   </energy>
  </scstep>
  <scstep>
   <time name="dav">   94.09    4.72</time>
   <time name="total">  101.48    5.09</time>
   <energy>
    <i name="e_fr_energy">    -41.93214724 </i>
    <i name="e_wo_entrp">    -41.96412394 </i>
    <i name="e_0_energy">    -41.94280614 </i>
   </energy>
  </scstep>
  <scstep>
   <time name="dav">   93.18    4.69</time>
   <time name="total">   98.96    5.05</time>
   <energy>
    <i name="e_fr_energy">    -41.93329014 </i>
    <i name="e_wo_entrp">    -41.96163158 </i>
    <i name="e_0_energy">    -41.94273729 </i>
   </energy>
  </scstep>
  <scstep>
   <time name="dav">   94.69    4.76</time>
   <time name="total">   99.59    5.11</time>
   <energy>
    <i name="e_fr_energy">    -41.93376542 </i>
    <i name="e_wo_entrp">    -41.96024414 </i>
    <i name="e_0_energy">    -41.94259166 </i>
   </energy>
  </scstep>
  <scstep>
   <time name="dav">   95.20    4.79</time>
   <time name="total">  101.72    5.15</time>
   <energy>
    <i name="e_fr_energy">    -41.93399407 </i>
    <i name="e_wo_entrp">    -41.95973089 </i>
    <i name="e_0_energy">    -41.94257301 </i>
   </energy>
  </scstep>
  <scstep>
   <time name="dav">   99.31    5.00</time>
   <time name="total">  106.74    5.37</time>
   <energy>
    <i name="e_fr_energy">    -41.93428566 </i>
    <i name="e_wo_entrp">    -41.95955684 </i>
    <i name="e_0_energy">    -41.94270939 </i>
   </energy>
  </scstep>
  <scstep>
   <time name="dav">   94.75    4.76</time>
   <time name="total">   99.00    5.11</time>
   <energy>
    <i name="e_fr_energy">    -41.93435474 </i>
    <i name="e_wo_entrp">    -41.95958343 </i>
    <i name="e_0_energy">    -41.94276430 </i>
   </energy>
  </scstep>
  <scstep>
   <time name="dav">  108.50    5.45</time>
   <time name="total">  114.43    5.82</time>
   <energy>
    <i name="e_fr_energy">    -41.93456280 </i>
    <i name="e_wo_entrp">    -41.95972998 </i>
    <i name="e_0_energy">    -41.94295186 </i>
   </energy>
  </scstep>
  <scstep>
   <time name="dav">   90.08    4.53</time>
   <time name="total">   95.72    4.89</time>
   <energy>
    <i name="e_fr_energy">    -41.93456131 </i>
    <i name="e_wo_entrp">    -41.95972873 </i>
    <i name="e_0_energy">    -41.94295045 </i>
   </energy>
  </scstep>
  <scstep>
   <time name="dav">  103.05    5.18</time>
   <time name="total">  110.57    5.56</time>
   <energy>
    <i name="e_fr_energy">    -41.93472819 </i>
    <i name="e_wo_entrp">    -41.95987934 </i>
    <i name="e_0_energy">    -41.94311190 </i>
   </energy>
  </scstep>
  <scstep>
   <time name="dav">   87.93    4.42</time>
   <time name="total">   92.60    4.77</time>
   <energy>
    <i name="e_fr_energy">    -41.93471742 </i>
    <i name="e_wo_entrp">    -41.95986920 </i>
    <i name="e_0_energy">    -41.94310135 </i>
   </energy>
  </scstep>
  <scstep>
   <time name="dav">   85.79    4.32</time>
   <time name="total">   91.06    4.67</time>
   <energy>
    <i name="e_fr_energy">    -41.93469058 </i>
    <i name="e_wo_entrp">    -41.95984414 </i>
    <i name="e_0_energy">    -41.94307510 </i>
   </energy>
  </scstep>
  <scstep>
   <time name="dav">   79.23    3.97</time>
   <time name="total">   86.67    4.35</time>
   <energy>
    <i name="e_fr_energy">    -41.93466200 </i>
    <i name="e_wo_entrp">    -41.95981779 </i>
    <i name="e_0_energy">    -41.94304727 </i>
   </energy>
  </scstep>
  <scstep>
   <time name="dav">   91.45    4.60</time>
   <time name="total">   96.48    4.95</time>
   <energy>
    <i name="e_fr_energy">    -41.93464165 </i>
    <i name="e_wo_entrp">    -41.95979927 </i>
    <i name="e_0_energy">    -41.94302753 </i>
   </energy>
  </scstep>
  <scstep>
   <time name="dav">   71.33    3.59</time>
   <time name="total">   77.27    3.95</time>
   <energy>
    <i name="e_fr_energy">    -41.93462085 </i>
    <i name="e_wo_entrp">    -41.95978058 </i>
    <i name="e_0_energy">    -41.94300743 </i>
   </energy>
  </scstep>
  <scstep>
   <time name="dav">   90.80    4.56</time>
   <time name="total">   97.68    4.93</time>
   <energy>
    <i name="e_fr_energy">    -41.93461356 </i>
    <i name="e_wo_entrp">    -41.95977409 </i>
    <i name="e_0_energy">    -41.94300040 </i>
   </energy>
  </scstep>
  <scstep>
   <time name="dav">   66.84    3.37</time>
   <time name="total">   71.23    3.72</time>
   <energy>
    <i name="e_fr_energy">    -41.93460926 </i>
    <i name="e_wo_entrp">    -41.95977029 </i>
    <i name="e_0_energy">    -41.94299627 </i>
   </energy>
  </scstep>
  <scstep>
   <time name="dav">   71.59    3.60</time>
   <time name="total">   77.57    3.97</time>
   <energy>
    <i name="e_fr_energy">    -41.93459464 </i>
    <i name="e_wo_entrp">    -41.95975743 </i>
    <i name="e_0_energy">    -41.94298223 </i>
   </energy>
  </scstep>
  <scstep>
   <time name="dav">   72.54    3.65</time>
   <time name="total">   79.21    4.02</time>
   <energy>
    <i name="e_fr_energy">    -41.93460426 </i>
    <i name="e_wo_entrp">    -41.95976587 </i>
    <i name="e_0_energy">    -41.94299147 </i>
   </energy>
  </scstep>
  <scstep>
   <time name="dav">   68.16    3.43</time>
   <time name="total">   74.45    3.80</time>
   <energy>
    <i name="e_fr_energy">    -41.93459427 </i>
    <i name="e_wo_entrp">    -41.95975711 </i>
    <i name="e_0_energy">    -41.94298188 </i>
   </energy>
  </scstep>
  <scstep>
   <time name="dav">   72.35    3.64</time>
   <time name="total">   78.57    4.00</time>
   <energy>
    <i name="e_fr_energy">    -41.93457169 </i>
    <i name="e_wo_entrp">    -41.95973757 </i>
    <i name="e_0_energy">    -41.94296032 </i>
   </energy>
  </scstep>
  <scstep>
   <time name="dav">   73.75    3.71</time>
   <time name="total">   79.92    4.07</time>
   <energy>
    <i name="e_fr_energy">    -41.93453319 </i>
    <i name="e_wo_entrp">    -41.95970530 </i>
    <i name="e_0_energy">    -41.94292389 </i>
   </energy>
  </scstep>
  <scstep>
   <time name="dav">   88.21    4.44</time>
   <time name="total">   93.01    4.79</time>
   <energy>
    <i name="e_fr_energy">    -41.93450961 </i>
    <i name="e_wo_entrp">    -41.95968629 </i>
    <i name="e_0_energy">    -41.94290184 </i>
   </energy>
  </scstep>
  <scstep>
   <time name="dav">   85.76    4.31</time>
   <time name="total">   90.80    4.67</time>
   <energy>
    <i name="e_fr_energy">    -41.93449275 </i>
    <i name="e_wo_entrp">    -41.95967311 </i>
    <i name="e_0_energy">    -41.94288621 </i>
   </energy>
  </scstep>
  <scstep>
   <time name="dav">   79.74    4.01</time>
   <time name="total">   87.17    4.38</time>
   <energy>
    <i name="e_fr_energy">    -41.93443930 </i>
    <i name="e_wo_entrp">    -41.95963403 </i>
    <i name="e_0_energy">    -41.94283755 </i>
   </energy>
  </scstep>
  <scstep>
   <time name="dav">  109.92    5.53</time>
   <time name="total">  114.06    5.87</time>
   <energy>
    <i name="e_fr_energy">    -41.93427443 </i>
    <i name="e_wo_entrp">    -41.95955485 </i>
    <i name="e_0_energy">    -41.94270124 </i>
   </energy>
  </scstep>
  <scstep>
   <time name="dav">  101.60    5.11</time>
   <time name="total">  108.26    5.48</time>
   <energy>
    <i name="e_fr_energy">    -41.93418990 </i>
    <i name="e_wo_entrp">    -41.95955520 </i>
    <i name="e_0_energy">    -41.94264500 </i>
   </energy>
  </scstep>
  <scstep>
   <time name="dav">   96.24    4.84</time>
   <time name="total">  101.46    5.19</time>
   <energy>
    <i name="e_fr_energy">    -41.93407691 </i>
    <i name="e_wo_entrp">    -41.95962597 </i>
    <i name="e_0_energy">    -41.94259326 </i>
   </energy>
  </scstep>
  <scstep>
   <time name="dav">   91.31    4.59</time>
   <time name="total">   96.67    4.95</time>
   <energy>
    <i name="e_fr_energy">    -41.93412179 </i>
    <i name="e_wo_entrp">    -41.95958656 </i>
    <i name="e_0_energy">    -41.94261005 </i>
   </energy>
  </scstep>
  <scstep>
   <time name="dav">   80.45    4.05</time>
   <time name="total">   86.80    4.41</time>
   <energy>
    <i name="e_fr_energy">    -41.93413888 </i>
    <i name="e_wo_entrp">    -41.95957563 </i>
    <i name="e_0_energy">    -41.94261780 </i>
   </energy>
  </scstep>
  <scstep>
   <time name="dav">   74.62    3.76</time>
   <time name="total">   80.74    4.12</time>
   <energy>
    <i name="e_fr_energy">    -41.93419713 </i>
    <i name="e_wo_entrp">    -41.95955358 </i>
    <i name="e_0_energy">    -41.94264928 </i>
   </energy>
  </scstep>
  <scstep>
   <time name="dav">   92.05    4.63</time>
   <time name="total">   99.48    5.00</time>
   <energy>
    <i name="e_fr_energy">    -41.93416689 </i>
    <i name="e_wo_entrp">    -41.95956227 </i>
    <i name="e_0_energy">    -41.94263201 </i>
   </energy>
  </scstep>
  <scstep>
   <time name="dav">   92.66    4.65</time>
   <time name="total">  100.10    5.02</time>
   <energy>
    <i name="e_fr_energy">    -41.93421230 </i>
    <i name="e_wo_entrp">    -41.95955134 </i>
    <i name="e_0_energy">    -41.94265865 </i>
   </energy>
  </scstep>
  <scstep>
   <time name="dav">  100.28    5.04</time>
   <time name="total">  107.70    5.41</time>
   <energy>
    <i name="e_fr_energy">    -41.93431447 </i>
    <i name="e_wo_entrp">    -41.95956627 </i>
    <i name="e_0_energy">    -41.94273174 </i>
   </energy>
  </scstep>
  <scstep>
   <time name="dav">  102.26    5.14</time>
   <time name="total">  106.93    5.39</time>
   <energy>
    <i name="alphaZ">     99.60307510 </i>
    <i name="ewald">   2862.10097504 </i>
    <i name="hartreedc">  -5091.29967082 </i>
    <i name="XCdc">   -116.42600645 </i>
    <i name="pawpsdc">   5872.79936062 </i>
    <i name="pawaedc">  -5635.93083495 </i>
    <i name="eentropy">      0.02534486 </i>
    <i name="bandstr">   -293.81646512 </i>
    <i name="atom">   2261.01001458 </i>
    <i name="e_fr_energy">    -41.93420714 </i>
    <i name="e_wo_entrp">    -41.95955199 </i>
    <i name="e_0_energy">    -41.94265542 </i>
   </energy>
  </scstep>
  <structure>
   <crystal>
    <varray name="basis" >
     <v>       3.18500000       0.00000000       0.00000000 </v>
     <v>      -1.59250000       2.75829100       0.00000000 </v>
     <v>       0.00000000       0.00000000      35.00000000 </v>
    </varray>
    <i name="volume">    307.48048922 </i>
    <varray name="rec_basis" >
     <v>       0.31397174       0.18127166       0.00000000 </v>
     <v>       0.00000000       0.36254333       0.00000000 </v>
     <v>       0.00000000       0.00000000       0.02857143 </v>
    </varray>
   </crystal>
   <varray name="positions" >
    <v>       0.64217973       0.36110163       0.20381795 </v>
    <v>       0.67295760       0.32335296       0.80905281 </v>
    <v>       0.97550397       0.02776841       0.16347535 </v>
    <v>       0.97551172       0.02778320       0.24395995 </v>
    <v>       0.67602776       0.32562660       0.40051633 </v>
    <v>       0.67604990       0.32560907       0.48392908 </v>
    <v>       0.00629245       0.99002344       0.76452782 </v>
    <v>       0.00629335       0.99001344       0.85344193 </v>
    <v>       0.00936429       0.99229376       0.44227026 </v>
   </varray>
  </structure>
  <varray name="forces" >
   <v>      -0.00128719       0.00093324      -0.10597400 </v>
   <v>       0.00036190      -0.00008501      -0.07453876 </v>
   <v>       0.00052207      -0.00028801      -0.07242698 </v>
   <v>       0.00056526      -0.00077914       0.18970852 </v>
   <v>      -0.00049876       0.00043633       0.43605618 </v>
   <v>      -0.00133197       0.00083068      -0.38484334 </v>
   <v>      -0.00000629      -0.00007596       0.45837300 </v>
   <v>      -0.00018837       0.00020218      -0.38404738 </v>
   <v>       0.00186336      -0.00117431      -0.06230725 </v>
  </varray>
  <varray name="stress" >
   <v>     174.30190244      -0.00085381      -0.01186811 </v>
   <v>      -0.00085379     174.29763499       0.00373411 </v>
   <v>      -0.01186844       0.00373405     -17.19782277 </v>
  </varray>
  <energy>
   <i name="e_fr_energy">    -41.93420714 </i>
   <i name="e_wo_entrp">    -41.94265542 </i>
   <i name="e_0_energy">      0.02534486 </i>
  </energy>
  <time name="totalsc">11771.19  600.60</time>
  <eigenvalues>
   <array>
    <dimension dim="1">band</dimension>
    <dimension dim="2">kpoint</dimension>
    <dimension dim="3">spin</dimension>
    <field>eigene</field>
    <field>occ</field>
    <set>
     <set comment="spin 1">
      <set comment="kpoint 1">
       <r>  -15.7807    1.0000 </r>
       <r>  -15.7232    1.0000 </r>
       <r>  -15.5136    1.0000 </r>
       <r>  -14.6945    1.0000 </r>
       <r>  -13.9730    1.0000 </r>
       <r>  -13.9529    1.0000 </r>
       <r>   -6.7846    1.0000 </r>
       <r>   -6.5392    1.0000 </r>
       <r>   -6.1617    1.0000 </r>
       <r>   -3.8984    1.0000 </r>
       <r>   -3.8983    1.0000 </r>
       <r>   -3.6041    1.0000 </r>
       <r>   -3.6040    1.0000 </r>
       <r>   -2.5782    1.0000 </r>
       <r>   -2.5778    1.0000 </r>
       <r>   -2.4597    1.0000 </r>
       <r>   -2.4596    1.0000 </r>
       <r>   -2.3382    1.0000 </r>
       <r>   -2.3377    1.0000 </r>
       <r>   -2.3150    1.0000 </r>
       <r>   -2.1957    1.0000 </r>
       <r>   -1.9589    1.0000 </r>
       <r>   -1.4036    1.0000 </r>
       <r>   -1.4035    1.0000 </r>
       <r>    0.1591    1.0002 </r>
       <r>    0.5106    1.0313 </r>
       <r>    0.5805    0.9685 </r>
       <r>    2.2928   -0.0000 </r>
       <r>    2.2932   -0.0000 </r>
       <r>    2.6678   -0.0000 </r>
       <r>    2.6684   -0.0000 </r>
       <r>    2.8176   -0.0000 </r>
       <r>    2.8178   -0.0000 </r>
       <r>    3.0131   -0.0000 </r>
       <r>    3.0133   -0.0000 </r>
       <r>    3.0155   -0.0000 </r>
       <r>    3.0156   -0.0000 </r>
       <r>    3.3864   -0.0000 </r>
       <r>    3.3864   -0.0000 </r>
       <r>    4.9334   -0.0000 </r>
       <r>    5.4020   -0.0000 </r>
       <r>    5.4258   -0.0000 </r>
       <r>    5.7160   -0.0000 </r>
       <r>    5.9254   -0.0000 </r>
       <r>    6.0820   -0.0000 </r>
       <r>    6.2470    0.0000 </r>
       <r>    6.7026    0.0000 </r>
       <r>    8.1076    0.0000 </r>
       <r>    8.3149    0.0000 </r>
       <r>    8.4891    0.0000 </r>
       <r>    8.5677    0.0000 </r>
       <r>    8.7035    0.0000 </r>
       <r>    9.4744    0.0000 </r>
       <r>    9.8980    0.0000 </r>
       <r>    9.8990    0.0000 </r>
       <r>    9.9009    0.0000 </r>
       <r>    9.9016    0.0000 </r>
       <r>   10.3016    0.0000 </r>
       <r>   10.5702    0.0000 </r>
       <r>   10.5702    0.0000 </r>
       <r>   11.2588    0.0000 </r>
       <r>   12.6456    0.0000 </r>
       <r>   12.6458    0.0000 </r>
       <r>   12.7227    0.0000 </r>
       <r>   12.7232    0.0000 </r>
       <r>   12.8087    0.0000 </r>
       <r>   12.8941    0.0000 </r>
       <r>   12.8942    0.0000 </r>
       <r>   13.1155    0.0000 </r>
       <r>   13.1919    0.0000 </r>
       <r>   13.5964    0.0000 </r>
       <r>   14.1564    0.0000 </r>
       <r>   14.4500    0.0000 </r>
       <r>   14.9133    0.0000 </r>
       <r>   15.5338    0.0000 </r>
       <r>   15.8185    0.0000 </r>
       <r>   16.1476    0.0000 </r>
       <r>   16.4918    0.0000 </r>
       <r>   16.4922    0.0000 </r>
       <r>   16.5221    0.0000 </r>
       <r>   16.5244    0.0000 </r>
       <r>   16.6144    0.0000 </r>
       <r>   16.6163    0.0000 </r>
       <r>   16.8045    0.0000 </r>
       <r>   16.8978    0.0000 </r>
       <r>   16.8986    0.0000 </r>
       <r>   17.1628    0.0000 </r>
       <r>   17.1629    0.0000 </r>
       <r>   17.7006    0.0000 </r>
       <r>   17.7006    0.0000 </r>
       <r>   17.7933    0.0000 </r>
       <r>   18.4493    0.0000 </r>
       <r>   18.8389    0.0000 </r>
       <r>   19.1495    0.0000 </r>
       <r>   19.9394    0.0000 </r>
       <r>   20.2634    0.0000 </r>
       <r>   20.7421    0.0000 </r>
       <r>   21.0044    0.0000 </r>
       <r>   21.1608    0.0000 </r>
       <r>   21.1608    0.0000 </r>
       <r>   22.4423    0.0000 </r>
       <r>   22.4837    0.0000 </r>
       <r>   22.7406    0.0000 </r>
       <r>   22.7909    0.0000 </r>
       <r>   22.8405    0.0000 </r>
       <r>   23.1287    0.0000 </r>
       <r>   23.6159    0.0000 </r>
       <r>   23.6159    0.0000 </r>
       <r>   24.0329    0.0000 </r>
       <r>   24.2839    0.0000 </r>
       <r>   24.4031    0.0000 </r>
       <r>   24.4989    0.0000 </r>
       <r>   24.5882    0.0000 </r>
       <r>   24.5974    0.0000 </r>
       <r>   24.7267    0.0000 </r>
       <r>   24.8907    0.0000 </r>
       <r>   24.9718    0.0000 </r>
       <r>   24.9781    0.0000 </r>
       <r>   25.0137    0.0000 </r>
       <r>   25.2275    0.0000 </r>
       <r>   25.3063    0.0000 </r>
       <r>   25.3236    0.0000 </r>
       <r>   25.3392    0.0000 </r>
       <r>   25.3702    0.0000 </r>
       <r>   25.3763    0.0000 </r>
       <r>   25.4669    0.0000 </r>
       <r>   25.4793    0.0000 </r>
       <r>   25.7096    0.0000 </r>
       <r>   25.8592    0.0000 </r>
       <r>   25.9881    0.0000 </r>
       <r>   26.0406    0.0000 </r>
       <r>   26.0519    0.0000 </r>
       <r>   26.0861    0.0000 </r>
       <r>   26.1172    0.0000 </r>
       <r>   26.2950    0.0000 </r>
       <r>   26.5406    0.0000 </r>
       <r>   26.5888    0.0000 </r>
       <r>   26.7575    0.0000 </r>
       <r>   27.0254    0.0000 </r>
       <r>   27.0594    0.0000 </r>
       <r>   27.2145    0.0000 </r>
       <r>   27.2311    0.0000 </r>
       <r>   27.2666    0.0000 </r>
       <r>   27.4243    0.0000 </r>
       <r>   27.5422    0.0000 </r>
       <r>   27.5431    0.0000 </r>
       <r>   27.6230    0.0000 </r>
       <r>   27.7685    0.0000 </r>
       <r>   27.7784    0.0000 </r>
       <r>   27.9698    0.0000 </r>
       <r>   28.3444    0.0000 </r>
       <r>   28.4115    0.0000 </r>
       <r>   28.5037    0.0000 </r>
       <r>   28.5425    0.0000 </r>
       <r>   28.6130    0.0000 </r>
       <r>   28.6824    0.0000 </r>
       <r>   28.8438    0.0000 </r>
       <r>   29.1970    0.0000 </r>
       <r>   29.2559    0.0000 </r>
       <r>   29.2680    0.0000 </r>
       <r>   29.4513    0.0000 </r>
       <r>   29.5023    0.0000 </r>
       <r>   29.5617    0.0000 </r>
       <r>   29.8885    0.0000 </r>
       <r>   30.0104    0.0000 </r>
       <r>   30.1278    0.0000 </r>
       <r>   30.1694    0.0000 </r>
       <r>   30.2533    0.0000 </r>
       <r>   30.4155    0.0000 </r>
       <r>   30.5056    0.0000 </r>
       <r>   30.6637    0.0000 </r>
       <r>   30.8051    0.0000 </r>
       <r>   30.9793    0.0000 </r>
       <r>   31.2860    0.0000 </r>
       <r>   31.3963    0.0000 </r>
       <r>   31.4740    0.0000 </r>
       <r>   31.6079    0.0000 </r>
       <r>   31.6176    0.0000 </r>
       <r>   32.1981    0.0000 </r>
       <r>   32.2764    0.0000 </r>
       <r>   32.5868    0.0000 </r>
       <r>   32.5926    0.0000 </r>
       <r>   32.6768    0.0000 </r>
       <r>   32.8600    0.0000 </r>
       <r>   33.2095    0.0000 </r>
       <r>   33.2744    0.0000 </r>
       <r>   33.3484    0.0000 </r>
       <r>   33.7761    0.0000 </r>
       <r>   33.8352    0.0000 </r>
       <r>   33.8586    0.0000 </r>
       <r>   33.9933    0.0000 </r>
       <r>   34.1413    0.0000 </r>
       <r>   34.4055    0.0000 </r>
       <r>   34.4175    0.0000 </r>
       <r>   34.8068    0.0000 </r>
       <r>   34.8393    0.0000 </r>
       <r>   34.8772    0.0000 </r>
       <r>   34.9951    0.0000 </r>
       <r>   35.0805    0.0000 </r>
       <r>   35.3489    0.0000 </r>
       <r>   35.4065    0.0000 </r>
       <r>   35.8043    0.0000 </r>
       <r>   36.1886    0.0000 </r>
       <r>   36.1973    0.0000 </r>
       <r>   36.5529    0.0000 </r>
       <r>   36.5801    0.0000 </r>
       <r>   36.6520    0.0000 </r>
       <r>   36.7279    0.0000 </r>
       <r>   36.7962    0.0000 </r>
       <r>   36.9949    0.0000 </r>
       <r>   37.3236    0.0000 </r>
       <r>   37.3688    0.0000 </r>
       <r>   37.3863    0.0000 </r>
       <r>   37.6584    0.0000 </r>
       <r>   37.6865    0.0000 </r>
       <r>   37.7884    0.0000 </r>
       <r>   38.1010    0.0000 </r>
       <r>   38.3450    0.0000 </r>
       <r>   38.5433    0.0000 </r>
       <r>   38.6477    0.0000 </r>
       <r>   38.7000    0.0000 </r>
       <r>   38.7593    0.0000 </r>
       <r>   38.8824    0.0000 </r>
       <r>   39.2426    0.0000 </r>
       <r>   39.2998    0.0000 </r>
       <r>   39.4695    0.0000 </r>
       <r>   39.5212    0.0000 </r>
       <r>   39.6037    0.0000 </r>
       <r>   39.6869    0.0000 </r>
       <r>   39.7377    0.0000 </r>
       <r>   40.1716    0.0000 </r>
       <r>   40.1859    0.0000 </r>
       <r>   40.4157    0.0000 </r>
       <r>   40.4428    0.0000 </r>
       <r>   40.5821    0.0000 </r>
       <r>   40.7507    0.0000 </r>
       <r>   40.7710    0.0000 </r>
       <r>   41.0105    0.0000 </r>
       <r>   41.0366    0.0000 </r>
       <r>   41.3358    0.0000 </r>
       <r>   41.4216    0.0000 </r>
       <r>   41.4467    0.0000 </r>
       <r>   41.4876    0.0000 </r>
       <r>   41.7369    0.0000 </r>
       <r>   41.7640    0.0000 </r>
       <r>   41.9503    0.0000 </r>
       <r>   41.9650    0.0000 </r>
       <r>   42.1374    0.0000 </r>
       <r>   42.1501    0.0000 </r>
       <r>   42.6011    0.0000 </r>
       <r>   42.6073    0.0000 </r>
       <r>   42.6091    0.0000 </r>
       <r>   42.6576    0.0000 </r>
       <r>   42.8417    0.0000 </r>
       <r>   42.8470    0.0000 </r>
       <r>   42.9632    0.0000 </r>
       <r>   43.0977    0.0000 </r>
       <r>   43.1184    0.0000 </r>
       <r>   43.1900    0.0000 </r>
       <r>   43.2853    0.0000 </r>
       <r>   43.4368    0.0000 </r>
       <r>   43.9803    0.0000 </r>
       <r>   43.9990    0.0000 </r>
       <r>   44.3636    0.0000 </r>
       <r>   44.5185    0.0000 </r>
       <r>   44.5331    0.0000 </r>
       <r>   44.5646    0.0000 </r>
       <r>   44.5892    0.0000 </r>
       <r>   45.0147    0.0000 </r>
       <r>   45.0641    0.0000 </r>
       <r>   45.2354    0.0000 </r>
       <r>   45.2822    0.0000 </r>
       <r>   45.4402    0.0000 </r>
       <r>   45.5140    0.0000 </r>
       <r>   45.5198    0.0000 </r>
       <r>   45.5347    0.0000 </r>
       <r>   45.6353    0.0000 </r>
       <r>   45.7728    0.0000 </r>
       <r>   45.8807    0.0000 </r>
       <r>   45.8948    0.0000 </r>
       <r>   46.2337    0.0000 </r>
       <r>   46.3507    0.0000 </r>
       <r>   46.4992    0.0000 </r>
       <r>   46.6136    0.0000 </r>
       <r>   46.7424    0.0000 </r>
       <r>   46.9208    0.0000 </r>
       <r>   47.0875    0.0000 </r>
       <r>   47.1295    0.0000 </r>
       <r>   47.3837    0.0000 </r>
       <r>   47.7080    0.0000 </r>
       <r>   47.7480    0.0000 </r>
       <r>   47.9005    0.0000 </r>
       <r>   47.9364    0.0000 </r>
       <r>   48.9078    0.0000 </r>
       <r>   49.0288    0.0000 </r>
       <r>   49.1085    0.0000 </r>
       <r>   49.1740    0.0000 </r>
       <r>   49.2006    0.0000 </r>
       <r>   49.8520    0.0000 </r>
       <r>   49.9069    0.0000 </r>
       <r>   50.0770    0.0000 </r>
       <r>   50.2987    0.0000 </r>
       <r>   50.5977    0.0000 </r>
       <r>   50.6941    0.0000 </r>
       <r>   50.7155    0.0000 </r>
       <r>   50.9301    0.0000 </r>
       <r>   51.0729    0.0000 </r>
       <r>   51.0788    0.0000 </r>
       <r>   51.6639    0.0000 </r>
       <r>   51.8624    0.0000 </r>
       <r>   52.1540    0.0000 </r>
       <r>   52.2780    0.0000 </r>
       <r>   52.4539    0.0000 </r>
       <r>   52.7038    0.0000 </r>
       <r>   52.8250    0.0000 </r>
       <r>   53.0414    0.0000 </r>
       <r>   53.1814    0.0000 </r>
       <r>   53.3485    0.0000 </r>
       <r>   53.8318    0.0000 </r>
       <r>   54.3096    0.0000 </r>
       <r>   54.3256    0.0000 </r>
       <r>   54.4453    0.0000 </r>
       <r>   54.7399    0.0000 </r>
       <r>   55.1881    0.0000 </r>
       <r>   55.3496    0.0000 </r>
       <r>   55.4394    0.0000 </r>
       <r>   55.5085    0.0000 </r>
       <r>   55.6191    0.0000 </r>
       <r>   56.0148    0.0000 </r>
       <r>   56.1197    0.0000 </r>
       <r>   56.1421    0.0000 </r>
       <r>   56.4225    0.0000 </r>
       <r>   56.4677    0.0000 </r>
       <r>   56.5577    0.0000 </r>
       <r>   56.6212    0.0000 </r>
       <r>   56.6729    0.0000 </r>
       <r>   56.8085    0.0000 </r>
       <r>   57.0972    0.0000 </r>
       <r>   57.1075    0.0000 </r>
       <r>   57.1830    0.0000 </r>
       <r>   57.3532    0.0000 </r>
       <r>   57.3884    0.0000 </r>
       <r>   57.4374    0.0000 </r>
       <r>   57.7476    0.0000 </r>
       <r>   57.8258    0.0000 </r>
       <r>   57.8713    0.0000 </r>
       <r>   57.9174    0.0000 </r>
       <r>   58.0091    0.0000 </r>
       <r>   58.2382    0.0000 </r>
       <r>   58.2556    0.0000 </r>
       <r>   58.3092    0.0000 </r>
       <r>   58.3441    0.0000 </r>
       <r>   58.7310    0.0000 </r>
       <r>   58.7584    0.0000 </r>
       <r>   58.7736    0.0000 </r>
       <r>   58.9174    0.0000 </r>
       <r>   58.9702    0.0000 </r>
       <r>   59.1465    0.0000 </r>
       <r>   59.2035    0.0000 </r>
       <r>   59.3842    0.0000 </r>
       <r>   59.4406    0.0000 </r>
       <r>   59.5088    0.0000 </r>
       <r>   59.6996    0.0000 </r>
       <r>   59.7470    0.0000 </r>
       <r>   59.8477    0.0000 </r>
       <r>   59.9676    0.0000 </r>
       <r>   60.1148    0.0000 </r>
       <r>   60.1557    0.0000 </r>
       <r>   60.3587    0.0000 </r>
       <r>   60.5434    0.0000 </r>
       <r>   60.7187    0.0000 </r>
       <r>   60.8610    0.0000 </r>
       <r>   61.1686    0.0000 </r>
       <r>   61.2097    0.0000 </r>
       <r>   61.2265    0.0000 </r>
       <r>   61.3748    0.0000 </r>
       <r>   61.4896    0.0000 </r>
       <r>   61.5249    0.0000 </r>
       <r>   61.6393    0.0000 </r>
       <r>   61.8451    0.0000 </r>
       <r>   62.0435    0.0000 </r>
       <r>   62.1212    0.0000 </r>
       <r>   62.1634    0.0000 </r>
       <r>   62.1841    0.0000 </r>
       <r>   62.3674    0.0000 </r>
       <r>   62.4705    0.0000 </r>
       <r>   62.5020    0.0000 </r>
       <r>   62.5134    0.0000 </r>
      </set>
     </set>
    </set>
   </array>
  </eigenvalues>
  <separator name="orbital magnetization" >
   <v name="MAGDIPOLOUT">      0.00000000      0.00000000      0.00000000</v>
  </separator>
  <dos>
   <i name="efermi">      0.72565448 </i>
   <total>
    <array>
     <dimension dim="1">gridpoints</dimension>
     <dimension dim="2">spin</dimension>
     <field>energy</field>
     <field>total</field>
     <field>integrated</field>
     <set>
      <set comment="spin 1">
       <r>   -19.6954     0.0000     0.0000 </r>
       <r>   -19.4083     0.0000     0.0000 </r>
       <r>   -19.1212     0.0000     0.0000 </r>
       <r>   -18.8342     0.0000     0.0000 </r>
       <r>   -18.5471     0.0000     0.0000 </r>
       <r>   -18.2600     0.0000     0.0000 </r>
       <r>   -17.9729     0.0000     0.0000 </r>
       <r>   -17.6859     0.0000     0.0000 </r>
       <r>   -17.3988    -0.0000    -0.0000 </r>
       <r>   -17.1117    -0.0000    -0.0000 </r>
       <r>   -16.8246    -0.0000    -0.0000 </r>
       <r>   -16.5375    -0.0000    -0.0000 </r>
       <r>   -16.2505    -0.0197    -0.0057 </r>
       <r>   -15.9634    -0.3448    -0.1047 </r>
       <r>   -15.6763    11.3784     3.1618 </r>
       <r>   -15.3892     9.5986     5.9174 </r>
       <r>   -15.1021     0.2851     5.9992 </r>
       <r>   -14.8151     0.5515     6.1576 </r>
       <r>   -14.5280     6.4001     7.9949 </r>
       <r>   -14.2409    -0.4065     7.8782 </r>
       <r>   -13.9538     7.9265    10.1537 </r>
       <r>   -13.6668     6.8271    12.1137 </r>
       <r>   -13.3797    -0.3938    12.0006 </r>
       <r>   -13.0926    -0.0021    12.0000 </r>
       <r>   -12.8055    -0.0000    12.0000 </r>
       <r>   -12.5184    -0.0000    12.0000 </r>
       <r>   -12.2314     0.0000    12.0000 </r>
       <r>   -11.9443     0.0000    12.0000 </r>
       <r>   -11.6572     0.0000    12.0000 </r>
       <r>   -11.3701     0.0000    12.0000 </r>
       <r>   -11.0830     0.0000    12.0000 </r>
       <r>   -10.7960     0.0000    12.0000 </r>
       <r>   -10.5089     0.0000    12.0000 </r>
       <r>   -10.2218     0.0000    12.0000 </r>
       <r>    -9.9347     0.0000    12.0000 </r>
       <r>    -9.6477     0.0000    12.0000 </r>
       <r>    -9.3606     0.0000    12.0000 </r>
       <r>    -9.0735     0.0000    12.0000 </r>
       <r>    -8.7864     0.0000    12.0000 </r>
       <r>    -8.4993    -0.0000    12.0000 </r>
       <r>    -8.2123    -0.0000    12.0000 </r>
       <r>    -7.9252    -0.0000    12.0000 </r>
       <r>    -7.6381    -0.0000    12.0000 </r>
       <r>    -7.3510    -0.0016    11.9995 </r>
       <r>    -7.0639    -0.2251    11.9349 </r>
       <r>    -6.7769     3.6920    12.9948 </r>
       <r>    -6.4898     8.4457    15.4194 </r>
       <r>    -6.2027     4.4602    16.6998 </r>
       <r>    -5.9156     4.7764    18.0710 </r>
       <r>    -5.6286    -0.2436    18.0011 </r>
       <r>    -5.3415    -0.0037    18.0000 </r>
       <r>    -5.0544    -0.0000    18.0000 </r>
       <r>    -4.7673    -0.0000    18.0000 </r>
       <r>    -4.4802    -0.0021    17.9994 </r>
       <r>    -4.1932    -0.4008    17.8843 </r>
       <r>    -3.9061     6.5364    19.7608 </r>
       <r>    -3.6190    14.3308    23.8748 </r>
       <r>    -3.3319     7.8673    26.1334 </r>
       <r>    -3.0448    -0.4955    25.9911 </r>
       <r>    -2.7578    -0.6240    25.8120 </r>
       <r>    -2.4707    19.9862    31.5496 </r>
       <r>    -2.1836    32.9789    41.0171 </r>
       <r>    -1.8965     8.9228    43.5787 </r>
       <r>    -1.6095     1.1949    43.9217 </r>
       <r>    -1.3224    11.6173    47.2568 </r>
       <r>    -1.0353     2.7686    48.0516 </r>
       <r>    -0.7482    -0.1794    48.0001 </r>
       <r>    -0.4611    -0.0006    47.9999 </r>
       <r>    -0.1741    -0.1394    47.9599 </r>
       <r>     0.1130     2.2297    48.6000 </r>
       <r>     0.4001     5.7555    50.2522 </r>
       <r>     0.6872    12.3352    53.7934 </r>
       <r>     0.9743     0.7986    54.0227 </r>
       <r>     1.2613    -0.0790    54.0000 </r>
       <r>     1.5484    -0.0001    54.0000 </r>
       <r>     1.8355    -0.0395    53.9887 </r>
       <r>     2.1226     0.0031    53.9895 </r>
       <r>     2.4096    12.1636    57.4815 </r>
       <r>     2.6967    10.9715    60.6311 </r>
       <r>     2.9838    29.2680    69.0334 </r>
       <r>     3.2709    19.5769    74.6535 </r>
       <r>     3.5580    11.7156    78.0168 </r>
       <r>     3.8450    -0.0198    78.0111 </r>
       <r>     4.1321    -0.0387    78.0000 </r>
       <r>     4.4192    -0.0058    77.9983 </r>
       <r>     4.7063    -0.2317    77.9318 </r>
       <r>     4.9933     5.3224    79.4598 </r>
       <r>     5.2804     2.7205    80.2407 </r>
       <r>     5.5675    12.8867    83.9403 </r>
       <r>     5.8546     8.1655    86.2844 </r>
       <r>     6.1417    12.1949    89.7853 </r>
       <r>     6.4287     7.7024    91.9965 </r>
       <r>     6.7158     3.9002    93.1161 </r>
       <r>     7.0029     3.2711    94.0552 </r>
       <r>     7.2900    -0.1913    94.0003 </r>
       <r>     7.5771    -0.0049    93.9989 </r>
       <r>     7.8641    -0.2659    93.9225 </r>
       <r>     8.1512     4.8662    95.3195 </r>
       <r>     8.4383    11.1948    98.5333 </r>
       <r>     8.7254    16.4006   103.2416 </r>
       <r>     9.0124     2.8324   104.0547 </r>
       <r>     9.2995    -0.2390   103.9861 </r>
       <r>     9.5866     5.6448   105.6066 </r>
       <r>     9.8737    12.2647   109.1275 </r>
       <r>    10.1608    18.1103   114.3266 </r>
       <r>    10.4478     6.6741   116.2426 </r>
       <r>    10.7349    13.0572   119.9910 </r>
       <r>    11.0220    -0.1696   119.9423 </r>
       <r>    11.3091     5.1148   121.4107 </r>
       <r>    11.5962     2.1862   122.0383 </r>
       <r>    11.8832    -0.1330   122.0001 </r>
       <r>    12.1703    -0.0326   121.9907 </r>
       <r>    12.4574    -0.8634   121.7429 </r>
       <r>    12.7445    23.1219   128.3807 </r>
       <r>    13.0315    27.9443   136.4029 </r>
       <r>    13.3186    12.1173   139.8815 </r>
       <r>    13.6057     4.2209   141.0932 </r>
       <r>    13.8928     3.1160   141.9878 </r>
       <r>    14.1799     3.9812   143.1307 </r>
       <r>    14.4669     7.1601   145.1862 </r>
       <r>    14.7540     3.0976   146.0755 </r>
       <r>    15.0411     6.2546   147.8710 </r>
       <r>    15.3282     0.2892   147.9540 </r>
       <r>    15.6153     5.6485   149.5756 </r>
       <r>    15.9023     7.0477   151.5988 </r>
       <r>    16.1894     5.4448   153.1619 </r>
       <r>    16.4765    13.7743   157.1162 </r>
       <r>    16.7636    34.4168   166.9966 </r>
       <r>    17.0506    18.8344   172.4035 </r>
       <r>    17.3377    12.4666   175.9824 </r>
       <r>    17.6248     2.9286   176.8232 </r>
       <r>    17.9119    17.8677   181.9526 </r>
       <r>    18.1990    -0.0138   181.9486 </r>
       <r>    18.4860     4.6153   183.2736 </r>
       <r>    18.7731     4.2608   184.4968 </r>
       <r>    19.0602     6.5864   186.3876 </r>
       <r>    19.3473     5.7894   188.0496 </r>
       <r>    19.6344    -0.3466   187.9501 </r>
       <r>    19.9214     3.0050   188.8128 </r>
       <r>    20.2085     6.2972   190.6206 </r>
       <r>    20.4956     4.7957   191.9973 </r>
       <r>    20.7827     4.2818   193.2265 </r>
       <r>    21.0697    10.3100   196.1863 </r>
       <r>    21.3568    13.7154   200.1237 </r>
       <r>    21.6439    -0.4074   200.0068 </r>
       <r>    21.9310    -0.0321   199.9975 </r>
       <r>    22.2181    -0.4689   199.8629 </r>
       <r>    22.5051     9.2331   202.5136 </r>
       <r>    22.7922    15.9140   207.0821 </r>
       <r>    23.0793    12.8217   210.7629 </r>
       <r>    23.3664     4.0677   211.9307 </r>
       <r>    23.6535     9.3067   214.6024 </r>
       <r>    23.9405     6.0869   216.3498 </r>
       <r>    24.2276     7.3187   218.4509 </r>
       <r>    24.5147    18.2609   223.6932 </r>
       <r>    24.8018    21.9831   230.0041 </r>
       <r>    25.0888    24.4016   237.0092 </r>
       <r>    25.3759    34.2698   246.8473 </r>
       <r>    25.6630    27.6449   254.7836 </r>
       <r>    25.9501    14.9613   259.0787 </r>
       <r>    26.2372    32.5157   268.4132 </r>
       <r>    26.5242    10.3084   271.3725 </r>
       <r>    26.8113    14.0532   275.4069 </r>
       <r>    27.0984    13.0834   279.1629 </r>
       <r>    27.3855    25.5625   286.5013 </r>
       <r>    27.6726    25.1554   293.7229 </r>
       <r>    27.9596    18.4344   299.0150 </r>
       <r>    28.2467     4.0989   300.1917 </r>
       <r>    28.5338    21.8063   306.4518 </r>
       <r>    28.8209    22.3533   312.8690 </r>
       <r>    29.1079     5.4003   314.4193 </r>
       <r>    29.3950    21.5355   320.6017 </r>
       <r>    29.6821    18.2840   325.8506 </r>
       <r>    29.9692     8.2094   328.2073 </r>
       <r>    30.2563    22.2592   334.5975 </r>
       <r>    30.5433    16.6044   339.3643 </r>
       <r>    30.8304    13.7447   343.3101 </r>
       <r>    31.1175     8.9166   345.8698 </r>
       <r>    31.4046    11.7725   349.2495 </r>
       <r>    31.6917    21.2836   355.3595 </r>
       <r>    31.9787     2.0017   355.9342 </r>
       <r>    32.2658     8.4026   358.3464 </r>
       <r>    32.5529    11.2468   361.5751 </r>
       <r>    32.8400    18.6353   366.9249 </r>
       <r>    33.1270     5.2410   368.4295 </r>
       <r>    33.4141    17.4927   373.4512 </r>
       <r>    33.7012     3.7226   374.5199 </r>
       <r>    33.9883    22.1467   380.8777 </r>
       <r>    34.2754    11.4722   384.1712 </r>
       <r>    34.5624    12.3798   387.7251 </r>
       <r>    34.8495    12.1478   391.2125 </r>
       <r>    35.1366    21.6200   397.4191 </r>
       <r>    35.4237    11.6247   400.7564 </r>
       <r>    35.7108     5.6238   402.3708 </r>
       <r>    35.9978     5.5119   403.9532 </r>
       <r>    36.2849    11.4189   407.2313 </r>
       <r>    36.5720    11.2765   410.4685 </r>
       <r>    36.8591    25.0204   417.6513 </r>
       <r>    37.1461     7.6439   419.8458 </r>
       <r>    37.4332    16.3197   424.5308 </r>
       <r>    37.7203    16.6280   429.3043 </r>
       <r>    38.0074    10.7848   432.4004 </r>
       <r>    38.2945     7.3490   434.5102 </r>
       <r>    38.5815    12.0055   437.9567 </r>
       <r>    38.8686    23.6660   444.7507 </r>
       <r>    39.1557     5.7774   446.4093 </r>
       <r>    39.4428    16.1152   451.0356 </r>
       <r>    39.7299    25.2395   458.2813 </r>
       <r>    40.0169     6.4303   460.1273 </r>
       <r>    40.3040    13.2507   463.9313 </r>
       <r>    40.5911    17.8045   469.0426 </r>
       <r>    40.8782    16.7327   473.8462 </r>
       <r>    41.1652    13.3886   477.6898 </r>
       <r>    41.4523    17.5865   482.7385 </r>
       <r>    41.7394    17.8015   487.8489 </r>
       <r>    42.0265    19.9127   493.5654 </r>
       <r>    42.3136    14.9356   497.8531 </r>
       <r>    42.6006    11.8136   501.2445 </r>
       <r>    42.8877    27.6462   509.1812 </r>
       <r>    43.1748    24.4907   516.2119 </r>
       <r>    43.4619    17.9190   521.3561 </r>
       <r>    43.7490     1.9479   521.9153 </r>
       <r>    44.0360     9.7331   524.7094 </r>
       <r>    44.3231     6.2443   526.5021 </r>
       <r>    44.6102    25.7571   533.8964 </r>
       <r>    44.8973     8.2284   536.2586 </r>
       <r>    45.1843    14.8053   540.5089 </r>
       <r>    45.4714    22.8337   547.0639 </r>
       <r>    45.7585    28.4570   555.2333 </r>
       <r>    46.0456    16.3791   559.9354 </r>
       <r>    46.3327     9.0194   562.5246 </r>
       <r>    46.6197    15.8284   567.0686 </r>
       <r>    46.9068    13.1777   570.8517 </r>
       <r>    47.1939    15.5701   575.3215 </r>
       <r>    47.4810     8.0152   577.6225 </r>
       <r>    47.7681    11.0016   580.7808 </r>
       <r>    48.0551    17.7829   585.8859 </r>
       <r>    48.3422     0.4743   586.0221 </r>
       <r>    48.6293    -0.3731   585.9149 </r>
       <r>    48.9164     4.1120   587.0954 </r>
       <r>    49.2034    24.2338   594.0524 </r>
       <r>    49.4905     7.1092   596.0933 </r>
       <r>    49.7776     1.3458   596.4797 </r>
       <r>    50.0647    15.2576   600.8598 </r>
       <r>    50.3518     8.7522   603.3724 </r>
       <r>    50.6388    10.0387   606.2543 </r>
       <r>    50.9259    17.3398   611.2322 </r>
       <r>    51.2130    16.1862   615.8789 </r>
       <r>    51.5001     0.4361   616.0040 </r>
       <r>    51.7872     7.7744   618.2359 </r>
[...]
       </set>
       <set comment="band 367">
        <r>  0.0013  0.0001  0.0019  0.0003  0.0000  0.0023  0.0002  0.0065  0.0000 </r>
        <r>  0.0064  0.0000  0.0002  0.0000  0.0004  0.0000  0.0005  0.0000  0.0001 </r>
        <r>  0.0030  0.0008  0.0015  0.0023  0.0000  0.0000  0.0000  0.0000  0.0000 </r>
        <r>  0.0014  0.0001  0.0011  0.0002  0.0000  0.0000  0.0000  0.0000  0.0000 </r>
        <r>  0.0000  0.0000  0.0000  0.0001  0.0000  0.0000  0.0000  0.0000  0.0000 </r>
        <r>  0.0046  0.0007  0.0010  0.0022  0.0000  0.0000  0.0000  0.0000  0.0000 </r>
        <r>  0.0001  0.0001  0.0018  0.0004  0.0005  0.0000  0.0017  0.0000  0.0002 </r>
        <r>  0.0069  0.0001  0.0009  0.0005  0.0005  0.0000  0.0001  0.0001  0.0002 </r>
        <r>  0.0016  0.0000  0.0000  0.0000  0.0000  0.0009  0.0003  0.0027  0.0000 </r>
       </set>
       <set comment="band 368">
        <r>  0.0000  0.0000  0.0000  0.0000  0.0000  0.0000  0.0000  0.0000  0.0000 </r>
        <r>  0.0000  0.0000  0.0000  0.0000  0.0000  0.0000  0.0000  0.0000  0.0000 </r>
        <r>  0.0000  0.0000  0.0000  0.0000  0.0000  0.0000  0.0000  0.0000  0.0000 </r>
        <r>  0.0000  0.0000  0.0000  0.0000  0.0000  0.0000  0.0000  0.0000  0.0000 </r>
        <r>  0.0000  0.0000  0.0000  0.0000  0.0000  0.0000  0.0000  0.0000  0.0000 </r>
        <r>  0.0000  0.0000  0.0000  0.0000  0.0000  0.0000  0.0000  0.0000  0.0000 </r>
        <r>  0.0000  0.0000  0.0000  0.0000  0.0000  0.0000  0.0000  0.0000  0.0000 </r>
        <r>  0.0000  0.0000  0.0000  0.0000  0.0000  0.0000  0.0000  0.0000  0.0000 </r>
        <r>  0.0000  0.0000  0.0000  0.0000  0.0000  0.0000  0.0000  0.0000  0.0000 </r>
       </set>
       <set comment="band 369">
        <r>  0.0001  0.0000  0.0083  0.0000  0.0000  0.0004  0.0000  0.0010  0.0000 </r>
        <r>  0.0001  0.0000  0.0015  0.0000  0.0001  0.0000  0.0050  0.0001  0.0000 </r>
        <r>  0.0003  0.0001  0.0023  0.0002  0.0000  0.0000  0.0000  0.0000  0.0000 </r>
        <r>  0.0009  0.0000  0.0006  0.0000  0.0000  0.0000  0.0000  0.0000  0.0000 </r>
        <r>  0.0062  0.0000  0.0005  0.0001  0.0000  0.0000  0.0000  0.0000  0.0000 </r>
        <r>  0.0030  0.0000  0.0001  0.0001  0.0000  0.0000  0.0000  0.0000  0.0000 </r>
        <r>  0.0004  0.0000  0.0011  0.0001  0.0002  0.0000  0.0005  0.0001  0.0001 </r>
        <r>  0.0075  0.0000  0.0009  0.0000  0.0003  0.0000  0.0020  0.0000  0.0001 </r>
        <r>  0.0000  0.0000  0.0034  0.0000  0.0000  0.0000  0.0013  0.0001  0.0000 </r>
       </set>
       <set comment="band 370">
        <r>  0.0007  0.0000  0.0005  0.0000  0.0001  0.0000  0.0004  0.0002  0.0000 </r>
        <r>  0.0002  0.0000  0.0021  0.0000  0.0000  0.0002  0.0004  0.0007  0.0000 </r>
        <r>  0.0016  0.0001  0.0004  0.0002  0.0000  0.0000  0.0000  0.0000  0.0000 </r>
        <r>  0.0012  0.0000  0.0001  0.0000  0.0000  0.0000  0.0000  0.0000  0.0000 </r>
        <r>  0.0002  0.0000  0.0001  0.0000  0.0000  0.0000  0.0000  0.0000  0.0000 </r>
        <r>  0.0001  0.0000  0.0001  0.0001  0.0000  0.0000  0.0000  0.0000  0.0000 </r>
        <r>  0.0001  0.0001  0.0034  0.0003  0.0001  0.0000  0.0062  0.0001  0.0000 </r>
        <r>  0.0000  0.0000  0.0044  0.0001  0.0000  0.0000  0.0041  0.0001  0.0000 </r>
        <r>  0.0007  0.0000  0.0005  0.0000  0.0001  0.0000  0.0000  0.0000  0.0000 </r>
       </set>
       <set comment="band 371">
        <r>  0.0001  0.0003  0.0002  0.0009  0.0030  0.0013  0.0001  0.0039  0.0009 </r>
        <r>  0.0003  0.0000  0.0000  0.0000  0.0002  0.0035  0.0001  0.0128  0.0001 </r>
        <r>  0.0002  0.0011  0.0000  0.0035  0.0000  0.0000  0.0000  0.0000  0.0000 </r>
        <r>  0.0006  0.0001  0.0000  0.0003  0.0000  0.0000  0.0000  0.0000  0.0000 </r>
        <r>  0.0003  0.0001  0.0000  0.0005  0.0000  0.0000  0.0000  0.0000  0.0000 </r>
        <r>  0.0001  0.0003  0.0002  0.0010  0.0000  0.0000  0.0000  0.0000  0.0000 </r>
        <r>  0.0005  0.0013  0.0000  0.0047  0.0001  0.0005  0.0007  0.0018  0.0000 </r>
        <r>  0.0004  0.0005  0.0000  0.0019  0.0025  0.0005  0.0007  0.0018  0.0007 </r>
        <r>  0.0000  0.0000  0.0009  0.0002  0.0018  0.0000  0.0000  0.0000  0.0005 </r>
       </set>
       <set comment="band 372">
        <r>  0.0000  0.0011  0.0000  0.0003  0.0009  0.0002  0.0000  0.0000  0.0033 </r>
        <r>  0.0000  0.0000  0.0000  0.0000  0.0001  0.0074  0.0000  0.0024  0.0003 </r>
        <r>  0.0000  0.0011  0.0000  0.0003  0.0000  0.0000  0.0000  0.0000  0.0000 </r>
        <r>  0.0000  0.0000  0.0000  0.0000  0.0000  0.0000  0.0000  0.0000  0.0000 </r>
        <r>  0.0000  0.0011  0.0000  0.0004  0.0000  0.0000  0.0000  0.0000  0.0000 </r>
        <r>  0.0000  0.0005  0.0000  0.0001  0.0000  0.0000  0.0000  0.0000  0.0000 </r>
        <r>  0.0000  0.0021  0.0000  0.0006  0.0000  0.0000  0.0000  0.0000  0.0000 </r>
        <r>  0.0000  0.0020  0.0000  0.0007  0.0011  0.0001  0.0000  0.0000  0.0037 </r>
        <r>  0.0000  0.0003  0.0000  0.0001  0.0008  0.0012  0.0000  0.0005  0.0028 </r>
       </set>
       <set comment="band 373">
        <r>  0.0076  0.0000  0.0005  0.0000  0.0002  0.0000  0.0016  0.0002  0.0001 </r>
        <r>  0.0155  0.0000  0.0043  0.0000  0.0000  0.0001  0.0022  0.0002  0.0002 </r>
        <r>  0.0000  0.0001  0.0000  0.0000  0.0000  0.0000  0.0000  0.0000  0.0000 </r>
        <r>  0.0000  0.0000  0.0053  0.0003  0.0000  0.0000  0.0000  0.0000  0.0000 </r>
        <r>  0.0038  0.0000  0.0027  0.0004  0.0000  0.0000  0.0000  0.0000  0.0000 </r>
        <r>  0.0101  0.0000  0.0002  0.0000  0.0000  0.0000  0.0000  0.0000  0.0000 </r>
        <r>  0.0166  0.0000  0.0042  0.0000  0.0001  0.0007  0.0000  0.0003  0.0006 </r>
        <r>  0.0001  0.0000  0.0004  0.0004  0.0005  0.0002  0.0012  0.0000  0.0007 </r>
        <r>  0.0002  0.0000  0.0159  0.0000  0.0002  0.0000  0.0000  0.0010  0.0003 </r>
       </set>
       <set comment="band 374">
        <r>  0.0003  0.0000  0.0002  0.0000  0.0000  0.0058  0.0000  0.0103  0.0000 </r>
        <r>  0.0011  0.0001  0.0010  0.0002  0.0019  0.0033  0.0010  0.0070  0.0013 </r>
        <r>  0.0010  0.0009  0.0000  0.0018  0.0000  0.0000  0.0000  0.0000  0.0000 </r>
        <r>  0.0027  0.0018  0.0002  0.0030  0.0000  0.0000  0.0000  0.0000  0.0000 </r>
        <r>  0.0001  0.0038  0.0013  0.0073  0.0000  0.0000  0.0000  0.0000  0.0000 </r>
        <r>  0.0003  0.0004  0.0001  0.0006  0.0000  0.0000  0.0000  0.0000  0.0000 </r>
        <r>  0.0006  0.0000  0.0004  0.0000  0.0046  0.0011  0.0000  0.0021  0.0035 </r>
        <r>  0.0006  0.0041  0.0021  0.0087  0.0009  0.0008  0.0001  0.0023  0.0011 </r>
        <r>  0.0033  0.0001  0.0003  0.0002  0.0008  0.0072  0.0000  0.0137  0.0005 </r>
       </set>
       <set comment="band 375">
        <r>  0.0001  0.0000  0.0000  0.0000  0.0000  0.0121  0.0000  0.0064  0.0000 </r>
        <r>  0.0003  0.0004  0.0000  0.0002  0.0021  0.0072  0.0001  0.0032  0.0046 </r>
        <r>  0.0000  0.0014  0.0000  0.0010  0.0000  0.0000  0.0000  0.0000  0.0000 </r>
        <r>  0.0000  0.0038  0.0001  0.0019  0.0000  0.0000  0.0000  0.0000  0.0000 </r>
        <r>  0.0001  0.0086  0.0001  0.0041  0.0000  0.0000  0.0000  0.0000  0.0000 </r>
        <r>  0.0001  0.0024  0.0000  0.0009  0.0000  0.0000  0.0000  0.0000  0.0000 </r>
        <r>  0.0001  0.0000  0.0000  0.0000  0.0060  0.0055  0.0000  0.0023  0.0145 </r>
        <r>  0.0000  0.0072  0.0000  0.0036  0.0030  0.0017  0.0000  0.0009  0.0074 </r>
        <r>  0.0000  0.0003  0.0003  0.0002  0.0008  0.0181  0.0000  0.0082  0.0017 </r>
       </set>
       <set comment="band 376">
        <r>  0.0008  0.0000  0.0005  0.0000  0.0003  0.0015  0.0000  0.0018  0.0001 </r>
        <r>  0.0021  0.0000  0.0008  0.0002  0.0016  0.0085  0.0020  0.0183  0.0003 </r>
        <r>  0.0013  0.0002  0.0001  0.0004  0.0000  0.0000  0.0000  0.0000  0.0000 </r>
        <r>  0.0034  0.0008  0.0008  0.0011  0.0000  0.0000  0.0000  0.0000  0.0000 </r>
        <r>  0.0004  0.0006  0.0022  0.0018  0.0000  0.0000  0.0000  0.0000  0.0000 </r>
        <r>  0.0003  0.0014  0.0002  0.0039  0.0000  0.0000  0.0000  0.0000  0.0000 </r>
        <r>  0.0005  0.0035  0.0003  0.0072  0.0105  0.0103  0.0000  0.0248  0.0029 </r>
        <r>  0.0003  0.0014  0.0030  0.0031  0.0044  0.0047  0.0002  0.0089  0.0008 </r>
        <r>  0.0049  0.0002  0.0008  0.0006  0.0032  0.0023  0.0001  0.0064  0.0011 </r>
       </set>
       <set comment="band 377">
        <r>  0.0000  0.0000  0.0000  0.0001  0.0007  0.0165  0.0000  0.0114  0.0001 </r>
        <r>  0.0000  0.0001  0.0008  0.0000  0.0000  0.0329  0.0001  0.0117  0.0004 </r>
        <r>  0.0000  0.0007  0.0001  0.0014  0.0000  0.0000  0.0000  0.0000  0.0000 </r>
        <r>  0.0005  0.0083  0.0000  0.0045  0.0000  0.0000  0.0000  0.0000  0.0000 </r>
        <r>  0.0000  0.0015  0.0001  0.0000  0.0000  0.0000  0.0000  0.0000  0.0000 </r>
        <r>  0.0005  0.0012  0.0000  0.0003  0.0000  0.0000  0.0000  0.0000  0.0000 </r>
        <r>  0.0005  0.0124  0.0001  0.0072  0.0012  0.0238  0.0000  0.0140  0.0000 </r>
        <r>  0.0003  0.0069  0.0004  0.0009  0.0001  0.0266  0.0000  0.0072  0.0029 </r>
        <r>  0.0008  0.0005  0.0001  0.0003  0.0016  0.0035  0.0000  0.0000  0.0015 </r>
       </set>
       <set comment="band 378">
        <r>  0.0001  0.0001  0.0003  0.0003  0.0012  0.0075  0.0005  0.0008  0.0007 </r>
        <r>  0.0004  0.0000  0.0082  0.0001  0.0006  0.0036  0.0010  0.0020  0.0000 </r>
        <r>  0.0003  0.0013  0.0011  0.0012  0.0000  0.0000  0.0000  0.0000  0.0000 </r>
        <r>  0.0057  0.0025  0.0000  0.0000  0.0000  0.0000  0.0000  0.0000  0.0000 </r>
        <r>  0.0000  0.0003  0.0011  0.0031  0.0000  0.0000  0.0000  0.0000  0.0000 </r>
        <r>  0.0047  0.0000  0.0002  0.0004  0.0000  0.0000  0.0000  0.0000  0.0000 </r>
        <r>  0.0062  0.0035  0.0017  0.0001  0.0034  0.0061  0.0000  0.0000  0.0010 </r>
        <r>  0.0027  0.0000  0.0050  0.0032  0.0057  0.0017  0.0000  0.0041  0.0004 </r>
        <r>  0.0087  0.0002  0.0007  0.0000  0.0004  0.0005  0.0004  0.0065  0.0010 </r>
       </set>
       <set comment="band 379">
        <r>  0.0000  0.0012  0.0000  0.0003  0.0016  0.0000  0.0000  0.0000  0.0054 </r>
        <r>  0.0000  0.0003  0.0000  0.0001  0.0006  0.0011  0.0000  0.0003  0.0023 </r>
        <r>  0.0000  0.0008  0.0000  0.0002  0.0000  0.0000  0.0000  0.0000  0.0000 </r>
        <r>  0.0000  0.0001  0.0000  0.0001  0.0000  0.0000  0.0000  0.0000  0.0000 </r>
        <r>  0.0000  0.0052  0.0000  0.0014  0.0000  0.0000  0.0000  0.0000  0.0000 </r>
        <r>  0.0000  0.0003  0.0000  0.0001  0.0000  0.0000  0.0000  0.0000  0.0000 </r>
        <r>  0.0000  0.0009  0.0000  0.0003  0.0037  0.0006  0.0000  0.0002  0.0131 </r>
        <r>  0.0000  0.0043  0.0000  0.0011  0.0041  0.0088  0.0000  0.0025  0.0148 </r>
        <r>  0.0000  0.0000  0.0000  0.0000  0.0003  0.0085  0.0000  0.0024  0.0010 </r>
       </set>
       <set comment="band 380">
        <r>  0.0001  0.0000  0.0024  0.0000  0.0001  0.0039  0.0001  0.0130  0.0000 </r>
        <r>  0.0000  0.0003  0.0000  0.0009  0.0045  0.0038  0.0011  0.0123  0.0013 </r>
        <r>  0.0007  0.0000  0.0000  0.0000  0.0000  0.0000  0.0000  0.0000  0.0000 </r>
        <r>  0.0012  0.0023  0.0000  0.0076  0.0000  0.0000  0.0000  0.0000  0.0000 </r>
        <r>  0.0002  0.0001  0.0005  0.0005  0.0000  0.0000  0.0000  0.0000  0.0000 </r>
        <r>  0.0001  0.0000  0.0001  0.0000  0.0000  0.0000  0.0000  0.0000  0.0000 </r>
        <r>  0.0021  0.0013  0.0001  0.0042  0.0127  0.0012  0.0000  0.0040  0.0037 </r>
        <r>  0.0020  0.0010  0.0021  0.0033  0.0165  0.0070  0.0001  0.0239  0.0048 </r>
        <r>  0.0021  0.0002  0.0001  0.0005  0.0008  0.0001  0.0002  0.0006  0.0003 </r>
       </set>
       <set comment="band 381">
        <r>  0.0000  0.0007  0.0008  0.0022  0.0070  0.0028  0.0001  0.0082  0.0023 </r>
        <r>  0.0026  0.0000  0.0003  0.0001  0.0003  0.0004  0.0000  0.0011  0.0001 </r>
        <r>  0.0000  0.0010  0.0004  0.0029  0.0000  0.0000  0.0000  0.0000  0.0000 </r>
        <r>  0.0001  0.0011  0.0005  0.0032  0.0000  0.0000  0.0000  0.0000  0.0000 </r>
        <r>  0.0008  0.0002  0.0003  0.0007  0.0000  0.0000  0.0000  0.0000  0.0000 </r>
        <r>  0.0002  0.0006  0.0000  0.0018  0.0000  0.0000  0.0000  0.0000  0.0000 </r>
        <r>  0.0015  0.0003  0.0000  0.0008  0.0019  0.0005  0.0000  0.0016  0.0006 </r>
        <r>  0.0038  0.0001  0.0001  0.0002  0.0011  0.0000  0.0000  0.0000  0.0003 </r>
        <r>  0.0001  0.0004  0.0001  0.0012  0.0032  0.0003  0.0001  0.0009  0.0011 </r>
       </set>
       <set comment="band 382">
        <r>  0.0000  0.0000  0.0000  0.0000  0.0000  0.0000  0.0000  0.0000  0.0000 </r>
        <r>  0.0000  0.0000  0.0000  0.0000  0.0000  0.0000  0.0000  0.0000  0.0000 </r>
        <r>  0.0000  0.0000  0.0000  0.0000  0.0000  0.0000  0.0000  0.0000  0.0000 </r>
        <r>  0.0000  0.0000  0.0000  0.0000  0.0000  0.0000  0.0000  0.0000  0.0000 </r>
        <r>  0.0000  0.0000  0.0000  0.0000  0.0000  0.0000  0.0000  0.0000  0.0000 </r>
        <r>  0.0000  0.0000  0.0000  0.0000  0.0000  0.0000  0.0000  0.0000  0.0000 </r>
        <r>  0.0000  0.0000  0.0000  0.0000  0.0000  0.0000  0.0000  0.0000  0.0000 </r>
        <r>  0.0000  0.0000  0.0000  0.0000  0.0000  0.0000  0.0000  0.0000  0.0000 </r>
        <r>  0.0000  0.0000  0.0000  0.0000  0.0000  0.0000  0.0000  0.0000  0.0000 </r>
       </set>
       <set comment="band 383">
        <r>  0.0000  0.0002  0.0000  0.0001  0.0001  0.0029  0.0000  0.0010  0.0002 </r>
        <r>  0.0000  0.0000  0.0000  0.0000  0.0000  0.0000  0.0000  0.0000  0.0000 </r>
        <r>  0.0000  0.0006  0.0000  0.0002  0.0000  0.0000  0.0000  0.0000  0.0000 </r>
        <r>  0.0000  0.0001  0.0000  0.0001  0.0000  0.0000  0.0000  0.0000  0.0000 </r>
        <r>  0.0000  0.0003  0.0000  0.0001  0.0000  0.0000  0.0000  0.0000  0.0000 </r>
        <r>  0.0000  0.0002  0.0000  0.0000  0.0000  0.0000  0.0000  0.0000  0.0000 </r>
        <r>  0.0000  0.0000  0.0000  0.0000  0.0001  0.0000  0.0000  0.0000  0.0002 </r>
        <r>  0.0000  0.0000  0.0000  0.0000  0.0000  0.0001  0.0000  0.0000  0.0000 </r>
        <r>  0.0000  0.0000  0.0000  0.0000  0.0000  0.0036  0.0000  0.0011  0.0001 </r>
       </set>
       <set comment="band 384">
        <r>  0.0000  0.0002  0.0001  0.0007  0.0020  0.0003  0.0000  0.0010  0.0007 </r>
        <r>  0.0009  0.0000  0.0001  0.0000  0.0000  0.0006  0.0000  0.0018  0.0000 </r>
        <r>  0.0000  0.0001  0.0002  0.0004  0.0000  0.0000  0.0000  0.0000  0.0000 </r>
        <r>  0.0000  0.0006  0.0002  0.0019  0.0000  0.0000  0.0000  0.0000  0.0000 </r>
        <r>  0.0003  0.0006  0.0002  0.0018  0.0000  0.0000  0.0000  0.0000  0.0000 </r>
        <r>  0.0000  0.0010  0.0000  0.0031  0.0000  0.0000  0.0000  0.0000  0.0000 </r>
        <r>  0.0003  0.0004  0.0001  0.0011  0.0000  0.0008  0.0000  0.0026  0.0000 </r>
        <r>  0.0010  0.0001  0.0003  0.0002  0.0003  0.0005  0.0000  0.0014  0.0001 </r>
        <r>  0.0000  0.0001  0.0000  0.0003  0.0010  0.0027  0.0001  0.0085  0.0003 </r>
       </set>
       <set comment="band 385">
        <r>  0.0000  0.0006  0.0000  0.0002  0.0005  0.0019  0.0000  0.0006  0.0015 </r>
        <r>  0.0000  0.0000  0.0000  0.0000  0.0000  0.0020  0.0000  0.0007  0.0000 </r>
        <r>  0.0000  0.0002  0.0000  0.0001  0.0000  0.0000  0.0000  0.0000  0.0000 </r>
        <r>  0.0000  0.0000  0.0000  0.0000  0.0000  0.0000  0.0000  0.0000  0.0000 </r>
        <r>  0.0000  0.0003  0.0000  0.0001  0.0000  0.0000  0.0000  0.0000  0.0000 </r>
        <r>  0.0000  0.0000  0.0000  0.0000  0.0000  0.0000  0.0000  0.0000  0.0000 </r>
        <r>  0.0000  0.0016  0.0000  0.0005  0.0000  0.0017  0.0000  0.0006  0.0001 </r>
        <r>  0.0000  0.0006  0.0000  0.0002  0.0006  0.0003  0.0000  0.0001  0.0016 </r>
        <r>  0.0000  0.0005  0.0000  0.0002  0.0003  0.0012  0.0000  0.0004  0.0008 </r>
       </set>
       <set comment="band 386">
        <r>  0.0000  0.0000  0.0012  0.0001  0.0001  0.0027  0.0001  0.0061  0.0001 </r>
        <r>  0.0022  0.0000  0.0000  0.0000  0.0000  0.0000  0.0002  0.0000  0.0000 </r>
        <r>  0.0001  0.0004  0.0007  0.0008  0.0000  0.0000  0.0000  0.0000  0.0000 </r>
        <r>  0.0002  0.0005  0.0001  0.0010  0.0000  0.0000  0.0000  0.0000  0.0000 </r>
        <r>  0.0010  0.0005  0.0002  0.0011  0.0000  0.0000  0.0000  0.0000  0.0000 </r>
        <r>  0.0006  0.0004  0.0000  0.0006  0.0000  0.0000  0.0000  0.0000  0.0000 </r>
        <r>  0.0046  0.0000  0.0003  0.0000  0.0018  0.0000  0.0000  0.0000  0.0005 </r>
        <r>  0.0058  0.0000  0.0000  0.0000  0.0003  0.0000  0.0004  0.0001  0.0003 </r>
        <r>  0.0016  0.0000  0.0005  0.0000  0.0000  0.0021  0.0000  0.0047  0.0001 </r>
       </set>
       <set comment="band 387">
        <r>  0.0001  0.0009  0.0019  0.0008  0.0026  0.0075  0.0001  0.0042  0.0030 </r>
        <r>  0.0028  0.0003  0.0004  0.0002  0.0012  0.0001  0.0004  0.0001  0.0014 </r>
        <r>  0.0009  0.0040  0.0012  0.0014  0.0000  0.0000  0.0000  0.0000  0.0000 </r>
        <r>  0.0000  0.0026  0.0000  0.0018  0.0000  0.0000  0.0000  0.0000  0.0000 </r>
        <r>  0.0003  0.0008  0.0007  0.0004  0.0000  0.0000  0.0000  0.0000  0.0000 </r>
        <r>  0.0001  0.0042  0.0000  0.0015  0.0000  0.0000  0.0000  0.0000  0.0000 </r>
        <r>  0.0050  0.0004  0.0002  0.0006  0.0003  0.0021  0.0000  0.0014  0.0003 </r>
        <r>  0.0103  0.0000  0.0001  0.0001  0.0214  0.0007  0.0005  0.0009  0.0148 </r>
        <r>  0.0011  0.0012  0.0006  0.0008  0.0021  0.0044  0.0000  0.0020  0.0028 </r>
       </set>
       <set comment="band 388">
        <r>  0.0005  0.0008  0.0062  0.0000  0.0000  0.0036  0.0004  0.0003  0.0024 </r>
        <r>  0.0091  0.0003  0.0014  0.0000  0.0000  0.0002  0.0011  0.0000  0.0014 </r>
        <r>  0.0029  0.0012  0.0038  0.0005  0.0000  0.0000  0.0000  0.0000  0.0000 </r>
        <r>  0.0000  0.0018  0.0000  0.0000  0.0000  0.0000  0.0000  0.0000  0.0000 </r>
        <r>  0.0009  0.0002  0.0023  0.0001  0.0000  0.0000  0.0000  0.0000  0.0000 </r>
        <r>  0.0002  0.0012  0.0000  0.0005  0.0000  0.0000  0.0000  0.0000  0.0000 </r>
        <r>  0.0160  0.0007  0.0007  0.0001  0.0027  0.0016  0.0001  0.0000  0.0005 </r>
        <r>  0.0328  0.0001  0.0003  0.0001  0.0037  0.0009  0.0017  0.0000  0.0238 </r>
        <r>  0.0035  0.0009  0.0022  0.0000  0.0000  0.0013  0.0001  0.0004  0.0021 </r>
       </set>
      </set>
     </set>
    </set>
   </array>
  </projected>
 </calculation>
 <structure name="finalpos" >
  <crystal>
   <varray name="basis" >
    <v>       3.18500000       0.00000000       0.00000000 </v>
    <v>      -1.59250000       2.75829100       0.00000000 </v>
    <v>       0.00000000       0.00000000      35.00000000 </v>
   </varray>
   <i name="volume">    307.48048922 </i>
   <varray name="rec_basis" >
    <v>       0.31397174       0.18127166       0.00000000 </v>
    <v>       0.00000000       0.36254333       0.00000000 </v>
    <v>       0.00000000       0.00000000       0.02857143 </v>
   </varray>
  </crystal>
  <varray name="positions" >
   <v>       0.64217973       0.36110163       0.20381795 </v>
   <v>       0.67295760       0.32335296       0.80905281 </v>
   <v>       0.97550397       0.02776841       0.16347535 </v>
   <v>       0.97551172       0.02778320       0.24395995 </v>
   <v>       0.67602776       0.32562660       0.40051633 </v>
   <v>       0.67604990       0.32560907       0.48392908 </v>
   <v>       0.00629245       0.99002344       0.76452782 </v>
   <v>       0.00629335       0.99001344       0.85344193 </v>
   <v>       0.00936429       0.99229376       0.44227026 </v>
  </varray>
 </structure>
</modeling>
