unknown system                          
           1
     3.185000    0.000000    0.000000
    -1.592500    2.758291    0.000000
     0.000000    0.000000   35.000000
   Mo   S    Se   W 
   2   4   2   1
Direct configuration=     1
   0.64217973  0.36110163  0.20381795
   0.67295760  0.32335296  0.80905281
   0.97550397  0.02776841  0.16347535
   0.97551172  0.02778320  0.24395995
   0.67602776  0.32562660  0.40051633
   0.67604990  0.32560907  0.48392908
   0.00629245  0.99002344  0.76452782
   0.00629335  0.99001344  0.85344193
   0.00936429  0.99229376  0.44227026
